/*--------------------------------*- C++ -*----------------------------------*\
  =========                 |
  \\      /  F ield         | OpenFOAM: The Open Source CFD Toolbox
   \\    /   O peration     | Website:  https://openfoam.org
    \\  /    A nd           | Version:  8
     \\/     M anipulation  |
\*---------------------------------------------------------------------------*/






FoamFile
{
    version     2.0;
    format      ascii;
    class       volScalarField;
    location    "0";
    object      pDDES;
}
// * * * * * * * * * * * * * * * * * * * * * * * * * * * * * * * * * * * * * //

dimensions      [0 2 -2 0 0 0 0];


internalField   nonuniform List<scalar> 
13630
(
-7.862546045e-05
-7.629509491e-05
-7.24741185e-05
-7.509050192e-05
-7.053252193e-05
-6.638668128e-05
-7.42976772e-05
-6.959723396e-05
-6.488693907e-05
-6.059841326e-05
-7.383547199e-05
-6.904630573e-05
-6.420948193e-05
-5.939133553e-05
-5.498939572e-05
-7.355136768e-05
-6.880896399e-05
-6.390313501e-05
-5.896253424e-05
-5.4078213e-05
-4.966110282e-05
-6.875849795e-05
-7.326772175e-05
-6.389493501e-05
-5.890128523e-05
-5.389369471e-05
-4.900392378e-05
-4.434585207e-05
-6.872336235e-05
-6.407438923e-05
-7.287973131e-05
-5.912496999e-05
-5.407579374e-05
-4.90495986e-05
-4.421144331e-05
-3.986934462e-05
-6.858887355e-05
-6.428084453e-05
-5.953107029e-05
-7.23424746e-05
-5.453137055e-05
-4.946619447e-05
-4.447382162e-05
-3.970902253e-05
-3.549030225e-05
-6.829296763e-05
-6.43930689e-05
-5.99717423e-05
-5.516011879e-05
-7.164055569e-05
-5.014766066e-05
-4.511114821e-05
-4.01860998e-05
-3.549629037e-05
-3.107748853e-05
-6.781399861e-05
-6.433349336e-05
-6.032219244e-05
-5.582718586e-05
-5.099282498e-05
-7.082340744e-05
-4.600774992e-05
-4.103795436e-05
-3.619665586e-05
-3.158971231e-05
-3.038465729e-05
-2.733219662e-05
-6.719959492e-05
-6.40735816e-05
-6.049272633e-05
-5.640640302e-05
-5.187799252e-05
-4.706045002e-05
-6.993349234e-05
-4.214141154e-05
-3.726755313e-05
-3.252392344e-05
-2.801120354e-05
-3.354224827e-05
-3.150983684e-05
-2.671508628e-05
-2.391398812e-05
-6.648853014e-05
-6.36581608e-05
-6.044719339e-05
-5.679917012e-05
-5.267577581e-05
-4.815421562e-05
-4.33922105e-05
-6.898048741e-05
-3.857482079e-05
-3.381930583e-05
-2.918715109e-05
-2.481842603e-05
-3.552413546e-05
-3.320387987e-05
-2.92780187e-05
-2.324212255e-05
-2.752375985e-05
-2.105012572e-05
-6.568852405e-05
-6.312203914e-05
-6.022601519e-05
-5.69619333e-05
-5.32813574e-05
-4.915993486e-05
-4.468434781e-05
-4.001628622e-05
-6.799240509e-05
-3.533062772e-05
-3.071194442e-05
-2.622282045e-05
-2.209477134e-05
-3.644831304e-05
-3.413835657e-05
-3.108217425e-05
-2.038369166e-05
-2.398865217e-05
-2.548202428e-05
-2.904800385e-05
-1.872855137e-05
-6.247185956e-05
-6.482873869e-05
-5.986038013e-05
-5.692914783e-05
-5.364497338e-05
-4.996809002e-05
-4.588716911e-05
-4.149653978e-05
-3.695885971e-05
-6.685788685e-05
-3.242916137e-05
-2.797402158e-05
-2.36854612e-05
-1.991556564e-05
-3.731856486e-05
-3.496613499e-05
-3.194525925e-05
-2.22833587e-05
-2.100308848e-05
-1.80340212e-05
-2.53558901e-05
-2.71561621e-05
-2.988600318e-05
-1.713645906e-05
-5.935603258e-05
-6.173767179e-05
-6.380952254e-05
-5.672857151e-05
-5.379361392e-05
-5.052355482e-05
-4.688720219e-05
-4.28850617e-05
-3.861841105e-05
-3.424376337e-05
-6.664851389e-05
-6.537567242e-05
-2.989590212e-05
-2.564657188e-05
-2.164151374e-05
-1.830727888e-05
-3.821788778e-05
-3.271972309e-05
-3.575460505e-05
-2.363931526e-05
-2.192217835e-05
-1.950328078e-05
-1.651516504e-05
-1.829806388e-05
-2.602588211e-05
-2.792307532e-05
-3.058792936e-05
-1.593130401e-05
-5.874428098e-05
-5.636542483e-05
-6.083118205e-05
-6.365570152e-05
-6.240609218e-05
-5.375175533e-05
-5.084556324e-05
-4.762456592e-05
-4.406537482e-05
-4.018077743e-05
-3.60762424e-05
-3.189539348e-05
-6.580811896e-05
-6.434463285e-05
-2.776685687e-05
-2.378301542e-05
-2.015329483e-05
-1.730186341e-05
-3.884426769e-05
-3.338948591e-05
-3.62502542e-05
-2.40993777e-05
-2.225925891e-05
-2.009125637e-05
-1.483131928e-05
-1.578955562e-05
-1.81010837e-05
-2.65165836e-05
-2.853445585e-05
-3.111500337e-05
-1.515057102e-05
-5.79469197e-05
-5.587224223e-05
-5.352420339e-05
-6.07258371e-05
-5.951048661e-05
-6.287699944e-05
-6.144004874e-05
-5.095522647e-05
-4.811106555e-05
-4.497402188e-05
-4.15291579e-05
-3.780173211e-05
-3.389579797e-05
-2.994446913e-05
-6.486183702e-05
-6.341026892e-05
-2.608507384e-05
-2.243738345e-05
-1.925523793e-05
-1.693491686e-05
-3.374043808e-05
-2.446072904e-05
-2.246515942e-05
-2.020592729e-05
-1.364889704e-05
-1.722126217e-05
-1.576631621e-05
-1.861366036e-05
-2.674803e-05
-2.890484029e-05
-3.130860568e-05
-1.521739614e-05
-5.518028047e-05
-5.788326598e-05
-5.671188774e-05
-5.314504961e-05
-5.085682642e-05
-6.000139547e-05
-5.860937745e-05
-6.197337643e-05
-6.054917321e-05
-4.836415974e-05
-4.561526657e-05
-4.259749403e-05
-3.93052469e-05
-3.577486132e-05
-3.210587238e-05
-2.842807226e-05
-6.419175043e-05
-6.275945634e-05
-2.490033694e-05
-2.164037505e-05
-1.906335092e-05
-1.737137791e-05
-2.461135955e-05
-2.24556934e-05
-2.042194137e-05
-1.236770731e-05
-1.672732105e-05
-1.527498171e-05
-1.834205978e-05
-2.667414446e-05
-2.895889702e-05
-1.598746712e-05
-5.255457654e-05
-5.515120938e-05
-5.403360046e-05
-5.721991693e-05
-5.587862688e-05
-5.058628085e-05
-4.83874137e-05
-5.913858695e-05
-5.776373291e-05
-6.133973511e-05
-5.99351697e-05
-4.600302418e-05
-4.338283907e-05
-4.052024087e-05
-3.742029003e-05
-3.412830119e-05
-3.073853441e-05
-2.738905459e-05
-6.391305214e-05
-6.248892169e-05
-2.425249113e-05
-2.154686808e-05
-1.965059164e-05
-1.846426312e-05
-2.441272045e-05
-2.213539483e-05
-2.023906563e-05
-1.135751063e-05
-1.618189162e-05
-1.463502849e-05
-1.798650555e-05
-1.766742389e-05
-5.255268115e-05
-5.149846766e-05
-5.00926908e-05
-5.454083657e-05
-5.325725942e-05
-5.641210009e-05
-5.508091999e-05
-4.821900438e-05
-4.613978672e-05
-5.854902702e-05
-5.718369357e-05
-6.107642548e-05
-5.967862671e-05
-4.389548849e-05
-4.143789192e-05
-3.876714254e-05
-3.590101187e-05
-3.289125016e-05
-2.983026388e-05
-2.687644155e-05
-6.366104208e-05
-6.224348181e-05
-2.424891682e-05
-2.219012094e-05
-2.095029231e-05
-2.046446934e-05
-1.976448402e-05
-1.370241989e-05
-1.544188672e-05
-1.736430386e-05
-2.041797961e-05
-5.199223597e-05
-5.078171671e-05
-5.011022222e-05
-4.781664029e-05
-4.912884469e-05
-5.377367052e-05
-5.250400864e-05
-5.584317114e-05
-5.450960816e-05
-4.606619405e-05
-4.41369084e-05
-5.829945803e-05
-5.694109132e-05
-6.083693006e-05
-5.944569421e-05
-4.206479571e-05
-3.980407928e-05
-3.736306462e-05
-3.47744317e-05
-3.209436545e-05
-2.942257925e-05
-2.695373769e-05
-6.364635919e-05
-6.222887168e-05
-2.492576095e-05
-2.35954958e-05
-2.316897553e-05
-2.345289977e-05
-2.439551463e-05
-5.127183977e-05
-5.007565778e-05
-4.95956956e-05
-4.574827835e-05
-4.784577322e-05
-4.6946152e-05
-4.846564843e-05
-5.326566315e-05
-5.187643183e-05
-5.560617865e-05
-5.418870205e-05
-4.41500124e-05
-4.240099588e-05
-5.807229172e-05
-5.671908002e-05
-6.082220352e-05
-5.94312296e-05
-4.053337034e-05
-3.850407666e-05
-3.633335291e-05
-3.406834003e-05
-3.177152394e-05
-2.95620921e-05
-2.766625948e-05
-6.36441182e-05
-6.222665252e-05
-2.635277269e-05
-2.586179107e-05
-2.629297887e-05
-2.759734343e-05
-2.97693914e-05
-5.085129669e-05
-4.958956197e-05
-4.892229481e-05
-4.578040171e-05
-4.497139525e-05
-4.390871254e-05
-4.737294512e-05
-4.634051584e-05
-4.780374366e-05
-5.285871885e-05
-5.149247954e-05
-5.538787445e-05
-5.403690375e-05
-4.249161429e-05
-4.09534332e-05
-5.805789624e-05
-5.670406244e-05
-6.082007894e-05
-5.942971984e-05
-3.932248001e-05
-3.756093429e-05
-3.570359695e-05
-3.381201896e-05
-3.195997124e-05
-3.029352956e-05
-2.907448652e-05
-6.365042645e-05
-6.223301898e-05
-2.857357504e-05
-2.898798812e-05
-3.050196756e-05
-3.299819582e-05
-3.676889537e-05
-5.067238089e-05
-4.937917765e-05
-4.844905561e-05
-4.534475738e-05
-4.441660349e-05
-4.393495328e-05
-4.322517998e-05
-4.231822822e-05
-4.674642332e-05
-4.572902253e-05
-4.735115363e-05
-5.279222387e-05
-5.191714081e-05
-5.537326069e-05
-5.395700646e-05
-4.111140152e-05
-3.981454574e-05
-5.805827823e-05
-5.670423707e-05
-6.08265982e-05
-5.943681754e-05
-3.845322135e-05
-3.699752415e-05
-3.549908433e-05
-3.40354236e-05
-3.269629815e-05
-3.166008173e-05
-3.12135453e-05
-3.161098721e-05
-3.313188427e-05
-3.581660712e-05
-3.979570465e-05
-4.566114512e-05
-5.084901204e-05
-4.9174163e-05
-4.824282223e-05
-4.476454706e-05
-4.38519528e-05
-4.353134864e-05
-4.232937863e-05
-4.27169507e-05
-4.099577563e-05
-4.172638728e-05
-4.629906471e-05
-4.529461876e-05
-4.714883107e-05
-5.357362534e-05
-5.205796333e-05
-5.53729551e-05
-5.394809705e-05
-4.002883361e-05
-3.900408046e-05
-5.806738409e-05
-5.671316103e-05
-3.794582517e-05
-3.683518298e-05
-3.574430593e-05
-3.476698475e-05
-3.401348658e-05
-3.369329352e-05
-3.410606223e-05
-3.555298099e-05
-3.824409941e-05
-4.232318679e-05
-4.815712236e-05
-5.663860793e-05
-5.096095992e-05
-4.908471965e-05
-4.806064317e-05
-4.43403078e-05
-4.29963402e-05
-4.343868204e-05
-4.195223664e-05
-4.219781113e-05
-3.99606397e-05
-4.049428026e-05
-4.098154386e-05
-4.125892156e-05
-4.609986354e-05
-4.509847349e-05
-4.694663949e-05
-5.355322355e-05
-5.201711974e-05
-5.538110781e-05
-5.398368012e-05
-3.926243517e-05
-3.854014358e-05
-3.781847045e-05
-3.709457815e-05
-3.646187542e-05
-3.603205187e-05
-3.593703514e-05
-3.641152944e-05
-3.779289545e-05
-4.037364124e-05
-4.43823119e-05
-5.013362534e-05
-5.817837155e-05
-6.972128176e-05
-5.086340752e-05
-4.909194467e-05
-4.798430382e-05
-4.414678915e-05
-4.259237176e-05
-4.32475681e-05
-4.146128413e-05
-4.180340693e-05
-3.991172707e-05
-3.954596468e-05
-3.922919495e-05
-4.00656063e-05
-4.062510197e-05
-4.078237544e-05
-4.58980503e-05
-4.489642379e-05
-4.69263432e-05
-5.350007632e-05
-5.196747225e-05
-3.882896272e-05
-3.843853119e-05
-3.80882484e-05
-3.779393592e-05
-3.767144517e-05
-3.785030276e-05
-3.848268898e-05
-3.983703937e-05
-4.228394755e-05
-4.608838208e-05
-5.162783054e-05
-5.923720164e-05
-6.981467595e-05
-8.463075937e-05
-5.067198435e-05
-4.908302071e-05
-4.800468741e-05
-4.394336793e-05
-4.240318594e-05
-4.304227332e-05
-4.107383938e-05
-4.161548713e-05
-3.956884757e-05
-3.914865738e-05
-3.913419641e-05
-3.881741577e-05
-3.889733489e-05
-3.963335621e-05
-4.017678293e-05
-4.040648855e-05
-4.587670992e-05
-4.533539686e-05
-4.692441871e-05
-3.874294634e-05
-3.871344234e-05
-3.876973642e-05
-3.894839392e-05
-3.938743976e-05
-4.023292786e-05
-4.165920109e-05
-4.398413148e-05
-4.75529705e-05
-5.275248986e-05
-5.988068369e-05
-6.955122808e-05
-8.278965834e-05
-0.0001005958184
-4.798074951e-05
-4.435794835e-05
-4.219562106e-05
-4.343089677e-05
-4.088664718e-05
-4.140536475e-05
-3.916109927e-05
-3.875817129e-05
-3.879846918e-05
-3.873904643e-05
-3.866534098e-05
-3.856327749e-05
-3.85243402e-05
-3.926443605e-05
-3.980262045e-05
-4.021955101e-05
-4.587443618e-05
-4.533230822e-05
-4.693055962e-05
-3.901635864e-05
-3.937642032e-05
-3.98741322e-05
-4.056771286e-05
-4.161698234e-05
-4.318213178e-05
-4.546817217e-05
-4.880619963e-05
-5.360874638e-05
-6.021704394e-05
-6.903866597e-05
-8.083999273e-05
-9.64845749e-05
-0.0001162887129
-4.435435403e-05
-4.216955131e-05
-4.342764441e-05
-4.067298869e-05
-4.137735959e-05
-3.879424185e-05
-3.839372221e-05
-3.842822116e-05
-3.900423326e-05
-3.851913425e-05
-3.855680188e-05
-3.832648508e-05
-3.820719212e-05
-3.816972458e-05
-3.907690552e-05
-3.96159885e-05
-4.0002491e-05
-4.588054435e-05
-4.533002357e-05
-3.965874203e-05
-4.043575609e-05
-4.140798774e-05
-4.265582174e-05
-4.435829032e-05
-4.668874681e-05
-4.987043576e-05
-5.428183795e-05
-6.034300168e-05
-6.837854744e-05
-7.891729183e-05
-9.262684034e-05
-0.0001099086876
-0.0001299699943
-4.43522149e-05
-4.216475645e-05
-4.342581815e-05
-4.09771601e-05
-4.137140058e-05
-3.860560901e-05
-3.820352867e-05
-3.806469249e-05
-3.962133997e-05
-3.870524597e-05
-3.888563151e-05
-3.816952812e-05
-3.821253995e-05
-3.799014303e-05
-3.795036901e-05
-3.780918632e-05
-3.885095794e-05
-3.939469389e-05
-3.997056047e-05
-4.067599366e-05
-4.189531319e-05
-4.337224527e-05
-4.520871153e-05
-4.759924559e-05
-5.072561544e-05
-5.483410132e-05
-6.03543449e-05
-6.763952115e-05
-7.709174679e-05
-8.913631609e-05
-0.0001042006697
-0.0001218890175
-0.0001392028789
-4.216989328e-05
-4.097079363e-05
-4.137615906e-05
-3.837416443e-05
-3.796600868e-05
-3.787250898e-05
-4.059425555e-05
-3.923169788e-05
-3.955817374e-05
-3.83387669e-05
-3.855379327e-05
-3.789265611e-05
-3.791760173e-05
-3.772122727e-05
-3.758115054e-05
-3.774993093e-05
-3.881625162e-05
-3.936135909e-05
-3.996155283e-05
-4.207004895e-05
-4.375373828e-05
-4.57610804e-05
-4.821330367e-05
-5.131502257e-05
-5.52570782e-05
-6.032826059e-05
-6.689668226e-05
-7.53845743e-05
-8.60383152e-05
-9.918973956e-05
-0.0001147439689
-0.0001303158206
-4.096971679e-05
-3.833787196e-05
-3.792792995e-05
-3.777769598e-05
-4.192329288e-05
-4.010348493e-05
-4.05757055e-05
-3.883308091e-05
-3.92007496e-05
-3.802698848e-05
-3.822435247e-05
-3.751876284e-05
-3.753339479e-05
-3.753159763e-05
-3.738787927e-05
-3.747852679e-05
-3.905290941e-05
-3.935258792e-05
-3.996349551e-05
-4.383779742e-05
-4.600354441e-05
-4.856072337e-05
-5.164546747e-05
-5.547028559e-05
-6.024193499e-05
-6.622036744e-05
-7.380140596e-05
-8.329988486e-05
-9.485633927e-05
-0.0001085207841
-0.0001224254083
-3.832713264e-05
-3.791696508e-05
-3.773874414e-05
-4.360456296e-05
-4.132019239e-05
-4.193723362e-05
-3.966327495e-05
-4.019796324e-05
-3.848154665e-05
-3.880923032e-05
-3.76320786e-05
-3.780123006e-05
-3.732106416e-05
-3.733113772e-05
-3.725202987e-05
-3.70998896e-05
-3.743784691e-05
-3.905019548e-05
-3.935411587e-05
-4.597078441e-05
-4.86304707e-05
-5.174766557e-05
-5.546971443e-05
-6.001461225e-05
-6.557453889e-05
-7.241001731e-05
-8.086556045e-05
-9.11223251e-05
-0.0001031690917
-0.0001155348509
-3.83275983e-05
-3.791732161e-05
-3.772732089e-05
-4.562911272e-05
-4.287833872e-05
-4.363748667e-05
-4.083164822e-05
-4.152884867e-05
-3.923823897e-05
-3.975065556e-05
-3.805580127e-05
-3.839139026e-05
-3.741978435e-05
-3.758889216e-05
-3.702378308e-05
-3.702509639e-05
-3.721013127e-05
-3.705672498e-05
-3.742673289e-05
-4.845399963e-05
-5.161173249e-05
-5.528809561e-05
-5.963801595e-05
-6.486912025e-05
-7.11617904e-05
-7.875611482e-05
-8.787897241e-05
-9.858688281e-05
-0.0001095777916
-3.772515993e-05
-4.798168447e-05
-4.477012772e-05
-4.566631105e-05
-4.232968058e-05
-4.318751962e-05
-4.034546146e-05
-4.102034291e-05
-3.880844815e-05
-3.930677121e-05
-3.783744614e-05
-3.816683238e-05
-3.710419696e-05
-3.72632021e-05
-3.697154898e-05
-3.700730304e-05
-3.719904635e-05
-3.704537085e-05
-3.742534682e-05
-5.126533506e-05
-5.491546472e-05
-5.913756831e-05
-6.408498302e-05
-6.99464581e-05
-7.689032645e-05
-8.508194151e-05
-9.463229799e-05
-0.0001044525052
-5.064074867e-05
-4.698162593e-05
-4.80072631e-05
-4.415111835e-05
-4.516345507e-05
-4.177763549e-05
-4.261334834e-05
-3.988627213e-05
-4.054604506e-05
-3.857707634e-05
-3.90684072e-05
-3.750124961e-05
-3.781992928e-05
-3.705835115e-05
-3.721584289e-05
-3.696521526e-05
-3.700072921e-05
-3.71979404e-05
-3.704531264e-05
-5.437479922e-05
-5.850054004e-05
-6.323904381e-05
-6.873329403e-05
-7.514940808e-05
-8.261834591e-05
-9.121273615e-05
-0.0001000115881
-5.357827831e-05
-4.949320282e-05
-5.063793651e-05
-4.628223542e-05
-4.744018952e-05
-4.352884935e-05
-4.451900168e-05
-4.128530782e-05
-4.210341285e-05
-3.964055577e-05
-4.029207776e-05
-3.821877544e-05
-3.869794091e-05
-3.7451955e-05
-3.776856829e-05
-3.705160634e-05
-3.720803943e-05
-3.696558269e-05
-3.700070738e-05
-5.774421879e-05
-6.231613224e-05
-6.752521585e-05
-7.349804218e-05
-8.036591316e-05
-8.820137009e-05
-9.614496958e-05
-5.675920693e-05
-5.227891234e-05
-5.353080269e-05
-4.870416524e-05
-4.999603698e-05
-4.558504588e-05
-4.672145587e-05
-4.299835928e-05
-4.396845907e-05
-4.102283856e-05
-4.183137571e-05
-3.925729834e-05
-3.989617471e-05
-3.816578464e-05
-3.864336031e-05
-3.744440619e-05
-3.77609831e-05
-3.711343743e-05
-3.720833774e-05
-6.132780982e-05
-6.63034516e-05
-7.19227537e-05
-7.828710659e-05
-8.547979814e-05
-9.273143223e-05
-6.014140672e-05
-5.530742783e-05
-5.665034041e-05
-5.139181303e-05
-5.280302503e-05
-4.792924301e-05
-4.920096399e-05
-4.501158401e-05
-4.612593693e-05
-4.27167106e-05
-4.367698784e-05
-4.06138206e-05
-4.140913006e-05
-3.920105155e-05
-3.983836723e-05
-3.815791933e-05
-3.863528036e-05
-3.75807831e-05
-3.793448195e-05
-6.507262879e-05
-7.039714546e-05
-7.635385555e-05
-8.300581976e-05
-8.966434689e-05
-6.367794413e-05
-5.853923722e-05
-5.995622996e-05
-5.431543832e-05
-5.582907033e-05
-5.053720088e-05
-5.192914614e-05
-4.730820729e-05
-4.855583393e-05
-4.471025386e-05
-4.581396206e-05
-4.228092075e-05
-4.32273664e-05
-4.055446334e-05
-4.134825576e-05
-3.919270603e-05
-3.982978524e-05
-3.815983291e-05
-3.863745951e-05
-6.891980593e-05
-7.453061698e-05
-8.074020297e-05
-8.68951829e-05
-6.731502799e-05
-6.193249283e-05
-6.340544496e-05
-5.743857764e-05
-5.90349191e-05
-5.337964103e-05
-5.487745875e-05
-4.986508793e-05
-5.123246228e-05
-4.698454359e-05
-4.822047777e-05
-4.424663348e-05
-4.533611354e-05
-4.221849667e-05
-4.316346531e-05
-4.054569945e-05
-4.133927723e-05
-3.947717778e-05
-4.015089507e-05
-7.280747377e-05
-7.863741484e-05
-8.437646466e-05
-7.099178038e-05
-6.544002827e-05
-6.694611511e-05
-6.072080578e-05
-6.237918569e-05
-5.706949742e-05
-5.866857828e-05
-5.265379514e-05
-5.480283289e-05
-4.951807932e-05
-5.087304089e-05
-4.649336915e-05
-4.77151807e-05
-4.417918535e-05
-4.526733755e-05
-4.220934352e-05
-4.315414844e-05
-4.090270522e-05
-4.13427224e-05
-7.667866885e-05
-8.205704216e-05
-7.463545626e-05
-6.900588778e-05
-7.051751163e-05
-6.411928189e-05
-6.581692287e-05
-6.030388977e-05
-6.196365575e-05
-5.633724868e-05
-5.790976138e-05
-5.22821756e-05
-5.374054308e-05
-4.899818668e-05
-5.033831985e-05
-4.642319982e-05
-4.764373443e-05
-4.416583033e-05
-4.525179247e-05
-4.221315248e-05
-4.31582921e-05
-7.992020255e-05
-7.773434481e-05
-7.254685625e-05
-7.41438198e-05
-6.759388634e-05
-6.930359814e-05
-6.36490513e-05
-6.534808199e-05
-5.951507774e-05
-6.114815915e-05
-5.592461821e-05
-5.748358308e-05
-5.173204408e-05
-5.317449904e-05
-4.892558354e-05
-5.026496001e-05
-4.640781481e-05
-4.762821118e-05
-4.41708944e-05
-4.525767145e-05
-7.619873213e-05
-7.66891244e-05
-7.107005513e-05
-7.282971637e-05
-6.70757363e-05
-6.878718705e-05
-6.280226808e-05
-6.447458145e-05
-5.907502782e-05
-6.069463052e-05
-5.537009929e-05
-5.691485057e-05
-5.165777475e-05
-5.378707283e-05
-4.891008575e-05
-5.02494222e-05
-4.696520409e-05
-4.76348032e-05
-7.493021258e-05
-7.535336772e-05
-7.051850116e-05
-7.22553159e-05
-6.615962047e-05
-6.785370351e-05
-6.23359665e-05
-6.399497215e-05
-5.849178706e-05
-6.00953681e-05
-5.529330883e-05
-5.683692143e-05
-5.230838724e-05
-5.377236084e-05
-4.952329255e-05
-5.088791295e-05
-7.472871221e-05
-7.484196249e-05
-6.954427226e-05
-7.122213719e-05
-6.566759839e-05
-6.735448551e-05
-6.172066787e-05
-6.336320075e-05
-5.841295933e-05
-6.001487782e-05
-5.527865505e-05
-5.682226038e-05
-5.230399984e-05
-5.376832269e-05
-7.305753388e-05
-7.388817176e-05
-6.906234194e-05
-7.080961223e-05
-6.501905591e-05
-6.668828428e-05
-6.164035585e-05
-6.328224117e-05
-5.83988367e-05
-6.000164285e-05
-5.527484245e-05
-5.681834955e-05
-7.258919504e-05
-7.37507944e-05
-6.838639092e-05
-7.016336895e-05
-6.493888941e-05
-6.660885265e-05
-6.162811769e-05
-6.327000301e-05
-5.839482401e-05
-5.999777568e-05
-7.194533828e-05
-7.331425149e-05
-6.830821076e-05
-7.008410466e-05
-6.492737157e-05
-6.659809151e-05
-6.162391219e-05
-6.326572475e-05
-7.188087329e-05
-7.322948659e-05
-6.829929043e-05
-7.007848035e-05
-6.492272951e-05
-6.659384962e-05
-7.191704935e-05
-7.31666878e-05
-6.829723134e-05
-7.007749082e-05
-7.195726357e-05
-7.316350093e-05
-5.304672595e-05
-5.198293729e-05
-5.305273953e-05
-5.198730651e-05
-5.09235033e-05
-5.307870379e-05
-5.201609019e-05
-5.092892752e-05
-4.987195643e-05
-5.31655387e-05
-5.210514792e-05
-5.095732195e-05
-4.987728244e-05
-4.882287249e-05
-5.337095354e-05
-5.230904935e-05
-5.104798765e-05
-4.990517482e-05
-4.882801659e-05
-4.777620416e-05
-5.376857007e-05
-5.270869951e-05
-5.125460302e-05
-4.999812154e-05
-4.885715316e-05
-4.778287257e-05
-4.673351214e-05
-5.442597103e-05
-5.336791946e-05
-5.165146649e-05
-5.020221943e-05
-4.894530502e-05
-4.781022653e-05
-4.673766671e-05
-4.569397788e-05
-5.673687701e-05
-5.5684166e-05
-5.230973329e-05
-5.060085095e-05
-4.915422323e-05
-4.790108505e-05
-4.676652316e-05
-4.5699162e-05
-4.466001701e-05
-5.846321437e-05
-5.741179484e-05
-5.462751869e-05
-5.125905591e-05
-4.954727774e-05
-4.810548126e-05
-4.685376553e-05
-4.57277456e-05
-4.466648534e-05
-4.362822801e-05
-6.00962012e-05
-5.904464342e-05
-5.635663547e-05
-5.357852569e-05
-5.020547906e-05
-4.850279583e-05
-4.706308027e-05
-4.581577741e-05
-4.469643318e-05
-4.363747576e-05
-4.259508569e-05
-6.095156277e-05
-5.991086073e-05
-5.79866537e-05
-5.530660565e-05
-5.252130359e-05
-4.915618047e-05
-4.745702608e-05
-4.602213085e-05
-4.478283518e-05
-4.366668145e-05
-4.260182322e-05
-4.156112846e-05
-6.261400995e-05
-5.885365317e-05
-6.17693222e-05
-5.694049469e-05
-5.424867413e-05
-5.147512275e-05
-4.811328472e-05
-4.642143904e-05
-4.498862836e-05
-4.375271965e-05
-4.263228038e-05
-4.157010335e-05
-4.052977602e-05
-6.52590461e-05
-5.783267261e-05
-6.053048128e-05
-6.430056237e-05
-5.590323417e-05
-5.319899719e-05
-5.042806879e-05
-4.707853077e-05
-4.538509893e-05
-4.39567084e-05
-4.271737635e-05
-4.159952368e-05
-4.053507655e-05
-3.949615348e-05
-6.718403165e-05
-5.677063746e-05
-5.960559065e-05
-6.3119689e-05
-6.71218877e-05
-5.482753113e-05
-5.214749399e-05
-4.939447172e-05
-4.604404603e-05
-4.435351002e-05
-4.292310405e-05
-4.16867224e-05
-4.056607941e-05
-3.950148675e-05
-3.846032996e-05
-7.042166544e-05
-5.572127338e-05
-5.848289584e-05
-6.2168554e-05
-6.50385482e-05
-5.377444177e-05
-5.111288192e-05
-4.835838627e-05
-4.501036165e-05
-4.331786113e-05
-4.189044921e-05
-4.065174653e-05
-3.953129635e-05
-3.846508116e-05
-3.741981709e-05
-7.573841867e-05
-6.833385123e-05
-5.462909758e-05
-5.75287886e-05
-6.104286877e-05
-6.497500726e-05
-5.273711577e-05
-5.007240179e-05
-4.732541129e-05
-4.397408702e-05
-4.22860212e-05
-4.085642286e-05
-3.961679613e-05
-3.84947416e-05
-3.74264273e-05
-3.637425471e-05
-7.822967746e-05
-7.362394535e-05
-6.623713125e-05
-5.360013893e-05
-5.632265311e-05
-6.014118844e-05
-6.30167051e-05
-5.169215365e-05
-4.904280286e-05
-4.628348688e-05
-4.294077007e-05
-4.124761108e-05
-3.982101043e-05
-3.857969932e-05
-3.745657887e-05
-3.638156704e-05
-3.532577466e-05
-7.399229798e-05
-7.152934995e-05
-6.415542884e-05
-6.295264029e-05
-5.255372889e-05
-5.54448925e-05
-5.896063885e-05
-5.066260928e-05
-4.800483657e-05
-4.524865653e-05
-4.190107938e-05
-4.021300992e-05
-3.878192365e-05
-3.75392774e-05
-3.641007424e-05
-3.533465497e-05
-3.427233241e-05
-6.983456842e-05
-6.945466157e-05
-6.209414278e-05
-6.084723282e-05
-6.090967872e-05
-5.152243102e-05
-5.422835238e-05
-5.801211228e-05
-4.962662933e-05
-4.696962424e-05
-4.420295591e-05
-4.086376794e-05
-3.917324284e-05
-3.774141805e-05
-3.649319842e-05
-3.536290751e-05
-3.428011405e-05
-3.322297925e-05
-6.739662786e-05
-6.534536806e-05
-6.570307596e-05
-6.00352796e-05
-5.880703975e-05
-5.874499766e-05
-5.050682012e-05
-5.338388291e-05
-5.685593351e-05
-4.859516048e-05
-4.592156984e-05
-4.316469858e-05
-3.982188355e-05
-3.813156945e-05
-3.669343641e-05
-3.544538413e-05
-3.430911238e-05
-3.323013516e-05
-3.218054553e-05
-6.328333257e-05
-6.152655988e-05
-6.119575846e-05
-5.796330515e-05
-5.666949073e-05
-5.67314346e-05
-5.58832362e-05
-4.945570981e-05
-5.217535727e-05
-4.754580732e-05
-4.48794417e-05
-4.211881969e-05
-3.877949712e-05
-3.708433724e-05
-3.564515646e-05
-3.439324792e-05
-3.326033766e-05
-3.218537313e-05
-3.11486001e-05
-5.909589527e-05
-5.73428988e-05
-5.700132533e-05
-5.586747648e-05
-5.471445911e-05
-5.465134745e-05
-5.38611348e-05
-5.47734744e-05
-4.839725079e-05
-5.131259604e-05
-4.65045523e-05
-4.383049964e-05
-4.107382119e-05
-3.773076605e-05
-3.603330697e-05
-3.459083018e-05
-3.334590292e-05
-3.221532097e-05
-3.115440995e-05
-3.01265809e-05
-5.375522596e-05
-5.109820631e-05
-5.279010293e-05
-5.490209151e-05
-5.164939648e-05
-5.248828165e-05
-5.255165161e-05
-5.276984302e-05
-5.181871529e-05
-4.736596384e-05
-5.011264875e-05
-4.545005504e-05
-4.278318738e-05
-4.001961497e-05
-3.667796409e-05
-3.497593934e-05
-3.354204455e-05
-3.229944559e-05
-3.118169116e-05
-3.012971501e-05
-2.911313459e-05
-5.047037121e-05
-5.040723772e-05
-5.065642472e-05
-4.685120075e-05
-4.851244739e-05
-4.743236059e-05
-4.954558608e-05
-4.830528633e-05
-4.836853986e-05
-4.963068204e-05
-5.060465992e-05
-4.921860818e-05
-4.629995237e-05
-4.440135308e-05
-4.172632543e-05
-3.896364433e-05
-3.561818448e-05
-3.392497092e-05
-3.249519796e-05
-3.126525553e-05
-3.015832044e-05
-2.911957199e-05
-2.811071681e-05
-4.849811376e-05
-4.758314026e-05
-4.530747538e-05
-4.277413245e-05
-4.427401655e-05
-4.637711027e-05
-4.318341962e-05
-4.406591324e-05
-4.412887938e-05
-4.624143185e-05
-4.617877494e-05
-4.545381307e-05
-4.643440843e-05
-4.707655899e-05
-4.797184374e-05
-4.525913391e-05
-4.334313053e-05
-4.067118425e-05
-3.789861148e-05
-3.456480772e-05
-3.287728759e-05
-3.14613535e-05
-3.024076068e-05
-2.914720608e-05
-2.811655759e-05
-2.711375055e-05
-4.586586147e-05
-4.499513307e-05
-4.201378761e-05
-4.195098882e-05
-4.222254938e-05
-3.889887012e-05
-4.021732093e-05
-3.897721035e-05
-4.106371489e-05
-3.984054638e-05
-3.990338155e-05
-4.120998346e-05
-4.217467722e-05
-4.428644024e-05
-4.332011304e-05
-4.287048068e-05
-4.376419747e-05
-4.419114339e-05
-4.228908801e-05
-3.960454342e-05
-3.684056719e-05
-3.351424311e-05
-3.184224261e-05
-3.043740071e-05
-2.92301338e-05
-2.814547952e-05
-2.712199239e-05
-2.612099706e-05
-4.314726539e-05
-4.006735981e-05
-3.910534724e-05
-3.694589395e-05
-3.521256076e-05
-3.637109694e-05
-3.826263855e-05
-3.496855788e-05
-3.567733438e-05
-3.573793583e-05
-3.78028235e-05
-3.774050856e-05
-3.701089008e-05
-3.796681267e-05
-3.865651888e-05
-3.951055623e-05
-4.161811376e-05
-4.075682227e-05
-4.101972445e-05
-4.206927042e-05
-4.121986785e-05
-3.854538227e-05
-3.578217729e-05
-3.247717541e-05
-3.081688192e-05
-2.942537321e-05
-2.822538772e-05
-2.714958282e-05
-2.612739991e-05
-2.51358324e-05
-3.741651017e-05
-3.656696208e-05
-3.372292485e-05
-3.366376041e-05
-3.452687815e-05
-3.159436892e-05
-3.27143789e-05
-3.119065514e-05
-3.305301288e-05
-3.170715718e-05
-3.176482642e-05
-3.289772212e-05
-3.382349678e-05
-3.587876563e-05
-3.49348411e-05
-3.449063661e-05
-3.533272684e-05
-3.681467933e-05
-3.784350338e-05
-3.994637518e-05
-3.890608423e-05
-4.016160528e-05
-3.748398012e-05
-3.473848483e-05
-3.144770744e-05
-2.98029172e-05
-2.841833157e-05
-2.722772842e-05
-2.615497942e-05
-2.514256812e-05
-2.416068855e-05
-3.575951996e-05
-3.473730976e-05
-3.18175189e-05
-3.091665349e-05
-2.93698231e-05
-2.795685032e-05
-2.912745185e-05
-3.09227471e-05
-2.759016934e-05
-2.794048123e-05
-2.79952128e-05
-2.986328764e-05
-2.98075538e-05
-2.898634739e-05
-2.986198524e-05
-3.042980097e-05
-3.124199793e-05
-3.327058221e-05
-3.244175241e-05
-3.267702414e-05
-3.369005208e-05
-3.596048919e-05
-3.699696026e-05
-3.909708903e-05
-3.804847438e-05
-3.64362495e-05
-3.369818296e-05
-3.043130528e-05
-2.879372187e-05
-2.741993922e-05
-2.623520231e-05
-2.5170546e-05
-2.416511052e-05
-2.31953436e-05
-3.491725874e-05
-3.388914411e-05
-2.92585155e-05
-2.846672578e-05
-2.617178325e-05
-2.611714626e-05
-2.730946107e-05
-2.444109305e-05
-2.548433622e-05
-2.406949716e-05
-2.583177047e-05
-2.441213655e-05
-2.446536382e-05
-2.526359822e-05
-2.609046533e-05
-2.796358422e-05
-2.710941044e-05
-2.655629942e-05
-2.732744906e-05
-2.865573697e-05
-2.963342195e-05
-3.164415102e-05
-3.064694829e-05
-3.183827357e-05
-3.285549974e-05
-3.435817416e-05
-3.539062891e-05
-3.267303327e-05
-2.941915955e-05
-2.779388342e-05
-2.642588152e-05
-2.525033415e-05
-2.419016892e-05
-2.319961641e-05
-2.223922274e-05
-3.332373672e-05
-3.230139191e-05
-2.766486978e-05
-2.671106995e-05
-2.424772174e-05
-2.34764484e-05
-2.227080586e-05
-2.119358032e-05
-2.193815817e-05
-2.367826164e-05
-2.044642133e-05
-2.091314491e-05
-2.096528988e-05
-2.271325684e-05
-2.266114643e-05
-2.178566501e-05
-2.252470767e-05
-2.284162838e-05
-2.360084909e-05
-2.544442395e-05
-2.468918319e-05
-2.481404408e-05
-2.57456777e-05
-2.783560012e-05
-2.881777618e-05
-3.081879549e-05
-2.981859325e-05
-3.026892045e-05
-3.12787015e-05
-3.164727968e-05
-2.841613787e-05
-2.679868339e-05
-2.544274867e-05
-2.427164327e-05
-2.322436558e-05
-2.224286072e-05
-2.12924042e-05
-3.063348413e-05
-2.685603613e-05
-2.589796532e-05
-2.182354729e-05
-2.10444432e-05
-1.918960334e-05
-1.91360632e-05
-2.027743903e-05
-1.808393426e-05
-1.868382788e-05
-1.68760107e-05
-1.863256875e-05
-1.733842691e-05
-1.739298386e-05
-1.830758993e-05
-1.908744525e-05
-2.082063656e-05
-2.003630107e-05
-1.934260035e-05
-2.010530079e-05
-2.112459151e-05
-2.202717769e-05
-2.386970118e-05
-2.295471859e-05
-2.400739322e-05
-2.49426339e-05
-2.630179733e-05
-2.727768697e-05
-2.926073648e-05
-2.826813579e-05
-2.862054498e-05
-2.962044164e-05
-2.741761637e-05
-2.581240915e-05
-2.446221515e-05
-2.330470306e-05
-2.226825745e-05
-2.129845598e-05
-2.035965372e-05
-2.533083534e-05
-2.437866169e-05
-2.022069748e-05
-1.936593799e-05
-1.73414337e-05
-1.654825064e-05
-1.51962322e-05
-1.49032503e-05
-1.557659198e-05
-1.713152051e-05
-1.358219833e-05
-1.377237459e-05
-1.382370738e-05
-1.558323311e-05
-1.553018774e-05
-1.474157398e-05
-1.557224823e-05
-1.593071829e-05
-1.66320533e-05
-1.835641342e-05
-1.763524597e-05
-1.763709224e-05
-1.84866476e-05
-2.033216697e-05
-2.12317027e-05
-2.307207797e-05
-2.215284803e-05
-2.249870158e-05
-2.34309573e-05
-2.469087303e-05
-2.565807154e-05
-2.762241274e-05
-2.663898522e-05
-2.642898835e-05
-2.483168828e-05