/*--------------------------------*- C++ -*----------------------------------*\
  =========                 |
  \\      /  F ield         | OpenFOAM: The Open Source CFD Toolbox
   \\    /   O peration     | Website:  https://openfoam.org
    \\  /    A nd           | Version:  8
     \\/     M anipulation  |
\*---------------------------------------------------------------------------*/






FoamFile
{
    version     2.0;
    format      ascii;
    class       volScalarField;
    location    "0";
    object      pDDES;
}
// * * * * * * * * * * * * * * * * * * * * * * * * * * * * * * * * * * * * * //

dimensions      [0 2 -2 0 0 0 0];


internalField   nonuniform List<scalar> 
26254
(
-9.559015598e-05
-9.653465531e-05
-9.470687655e-05
-9.908112406e-05
-9.621815116e-05
-9.510618838e-05
-9.335092909e-05
-9.293703624e-05
-9.739106463e-05
-0.0001013613946
-9.546363435e-05
-9.39417514e-05
-9.247341222e-05
-9.277035133e-05
-9.219910862e-05
-9.168450924e-05
-9.205414244e-05
-9.208204574e-05
-9.980120376e-05
-9.587306704e-05
-9.726179997e-05
-0.0001026733516
-9.428818885e-05
-9.285718261e-05
-9.221358778e-05
-9.145545482e-05
-9.139939357e-05
-9.175956802e-05
-9.123982454e-05
-9.103298362e-05
-9.071073873e-05
-9.110682004e-05
-9.826285532e-05
-0.0001012464636
-9.480619337e-05
-9.676443733e-05
-0.0001016380629
-9.308331937e-05
-9.154866711e-05
-9.18646474e-05
-9.261107334e-05
-9.059503645e-05
-9.068545478e-05
-9.059976583e-05
-9.085857164e-05
-9.039590077e-05
-9.030648653e-05
-9.015011892e-05
-9.033921378e-05
-9.650928405e-05
-9.973704437e-05
-0.0001003846482
-9.383311408e-05
-9.554675489e-05
-9.825779853e-05
-9.220314678e-05
-9.19753802e-05
-9.083642362e-05
-9.102231706e-05
-9.007771587e-05
-8.990750939e-05
-9.000228602e-05
-9.000358841e-05
-9.013843373e-05
-9.000520367e-05
-8.979254198e-05
-8.982759027e-05
-8.977079415e-05
-8.991721552e-05
-9.508640505e-05
-9.810780466e-05
-9.45343636e-05
-9.625143139e-05
-9.909316577e-05
-9.670056897e-05
-9.257650527e-05
-9.328049782e-05
-9.134391439e-05
-9.089064406e-05
-9.198972111e-05
-9.121969197e-05
-9.0011883e-05
-9.046201012e-05
-8.967753092e-05
-8.957471437e-05
-8.949411131e-05
-8.95554258e-05
-8.955938392e-05
-8.96276033e-05
-8.968811017e-05
-8.974565571e-05
-8.971677744e-05
-8.937027451e-05
-8.944421279e-05
-8.93984834e-05
-8.949980111e-05
-9.333896742e-05
-9.380591655e-05
-9.769918688e-05
-9.652653534e-05
-9.546338697e-05
-9.499039152e-05
-9.153915744e-05
-9.155864245e-05
-9.133600543e-05
-8.611675003e-05
-9.022429003e-05
-9.001555009e-05
-9.050827794e-05
-8.963237633e-05
-8.922978304e-05
-8.935727237e-05
-8.907318261e-05
-8.921567496e-05
-8.908149903e-05
-8.91718737e-05
-8.914716454e-05
-8.920320397e-05
-8.927268209e-05
-8.933985373e-05
-8.929938485e-05
-8.897260705e-05
-8.903966955e-05
-8.898493252e-05
-8.907447045e-05
-9.196554311e-05
-9.25142449e-05
-9.61554324e-05
-9.384909208e-05
-9.465809126e-05
-9.426317411e-05
-8.942675049e-05
-8.526993042e-05
-9.064526239e-05
-9.064051847e-05
-9.140421753e-05
-9.018748824e-05
-7.932968583e-05
-8.947766037e-05
-8.959133265e-05
-8.940157568e-05
-8.989268099e-05
-8.886095748e-05
-8.89703806e-05
-8.87173519e-05
-8.898347733e-05
-8.893596532e-05
-8.872291073e-05
-8.89581861e-05
-8.884998533e-05
-8.875031926e-05
-8.881838585e-05
-8.886311844e-05
-8.893857012e-05
-8.888116281e-05
-8.877095388e-05
-8.883459668e-05
-8.879267989e-05
-8.886520664e-05
-9.083505574e-05
-9.069426596e-05
-9.136695735e-05
-9.446132026e-05
-9.263665561e-05
-8.788901323e-05
-9.384646546e-05
-9.332782793e-05
-9.325423889e-05
-8.393816825e-05
-7.890316192e-05
-8.973339573e-05
-8.994177915e-05
-8.95805133e-05
-7.563928375e-05
-8.912412159e-05
-8.896800864e-05
-8.931066259e-05
-8.854998305e-05
-8.864128904e-05
-8.85289337e-05
-8.865249401e-05
-8.863701078e-05
-8.850997256e-05
-8.871997852e-05
-8.866030112e-05
-8.85190093e-05
-8.857017383e-05
-8.862596587e-05
-8.866596909e-05
-8.873964543e-05
-8.86919297e-05
-8.86843336e-05
-8.874615014e-05
-8.870969032e-05
-8.87739734e-05
-9.072993998e-05
-8.995968528e-05
-8.994095697e-05
-8.947461902e-05
-9.020642028e-05
-9.026948101e-05
-9.301537648e-05
-9.135161235e-05
-8.70119984e-05
-8.32591686e-05
-9.300357488e-05
-9.19624872e-05
-9.206506365e-05
-7.859917969e-05
-7.554319745e-05
-8.904108836e-05
-8.905913273e-05
-8.92239259e-05
-8.901363617e-05
-7.279126294e-05
-8.894213533e-05
-8.866819553e-05
-8.862404502e-05
-8.859204536e-05
-8.841780073e-05
-8.847985737e-05
-8.844909462e-05
-8.844803961e-05
-8.836638153e-05
-8.837285714e-05
-8.84537003e-05
-8.837149653e-05
-8.831683226e-05
-8.849231381e-05
-8.854321641e-05
-8.858239016e-05
-8.865377458e-05
-8.861305832e-05
-8.864173287e-05
-8.870073361e-05
-8.866930148e-05
-8.872659237e-05
-8.905237337e-05
-8.924306167e-05
-8.892636106e-05
-8.948981122e-05
-8.894014172e-05
-8.91890304e-05
-8.992774383e-05
-9.111918916e-05
-9.00205705e-05
-8.613396494e-05
-8.265540964e-05
-7.836990699e-05
-9.183160728e-05
-9.048591164e-05
-9.048576612e-05
-7.556402124e-05
-7.306571933e-05
-8.872791659e-05
-8.871709724e-05
-8.865958807e-05
-8.844980039e-05
-7.158349035e-05
-8.849132428e-05
-8.854552289e-05
-8.824667748e-05
-8.833580068e-05
-8.828859427e-05
-8.834281471e-05
-8.840061491e-05
-8.840899682e-05
-8.831363812e-05
-8.823973621e-05
-8.829301805e-05
-8.825270925e-05
-8.817281196e-05
-8.818323113e-05
-8.845407865e-05
-8.850167796e-05
-8.853995678e-05
-8.861141396e-05
-8.857377543e-05
-8.862619143e-05
-8.868343866e-05
-8.865480777e-05
-8.870802412e-05
-8.83382454e-05
-8.835522021e-05
-8.870093734e-05
-8.834592882e-05
-8.831295418e-05
-8.819795039e-05
-8.846045966e-05
-8.915938815e-05
-9.072693501e-05
-9.020789003e-05
-8.86945927e-05
-8.979340782e-05
-8.53119127e-05
-8.212420653e-05
-7.828974049e-05
-7.568897854e-05
-9.007621702e-05
-8.936745144e-05
-8.931509365e-05
-8.92879616e-05
-7.347750216e-05
-7.198436651e-05
-8.848666766e-05
-8.829201397e-05
-8.837378846e-05
-8.829149738e-05
-8.809358405e-05
-7.110893785e-05
-8.805612015e-05
-8.820585208e-05
-8.802916273e-05
-8.813248132e-05
-8.807987615e-05
-8.830545994e-05
-8.836081543e-05
-8.839472139e-05
-8.82346867e-05
-8.816593618e-05
-8.825274563e-05
-8.811973385e-05
-8.804734534e-05
-8.810496365e-05
-8.84407782e-05
-8.848650032e-05
-8.852531028e-05
-8.85959671e-05
-8.856000204e-05
-8.862506365e-05
-8.868217265e-05
-8.865480777e-05
-8.870544843e-05
-8.807696577e-05
-8.800328942e-05
-8.789685671e-05
-8.801306831e-05
-8.791872096e-05
-8.760140918e-05
-8.763495134e-05
-8.772352157e-05
-8.767069812e-05
-8.834410255e-05
-8.938067185e-05
-8.900570538e-05
-8.430372691e-05
-8.778586925e-05
-8.901028195e-05
-8.140285354e-05
-7.829398965e-05
-7.594154158e-05
-7.394257409e-05
-8.842074749e-05
-8.794748283e-05
-8.822121163e-05
-8.848038851e-05
-8.888461889e-05
-7.26295475e-05
-8.814079774e-05
-8.821710071e-05
-8.796592738e-05
-8.806060941e-05
-8.797462215e-05
-8.780013741e-05
-7.232095231e-05
-8.785393584e-05
-8.794452879e-05
-8.788514242e-05
-8.799925854e-05
-8.794262249e-05
-8.829226135e-05
-8.834654e-05
-8.839486691e-05
-8.819485083e-05
-8.812879969e-05
-8.823837561e-05
-8.804124082e-05
-8.797265036e-05
-8.806510596e-05
-8.844125114e-05
-8.848666766e-05
-8.852499013e-05
-8.859535592e-05
-8.856032946e-05
-8.863162657e-05
-8.868824807e-05
-8.866129065e-05
-8.871056343e-05
-8.783915837e-05
-8.776602044e-05
-8.764868835e-05
-8.756649913e-05
-8.771543071e-05
-8.75974074e-05
-8.724864165e-05
-8.735369192e-05
-8.726438682e-05
-8.734099538e-05
-8.745767991e-05
-8.722045459e-05
-8.756920579e-05
-8.824091492e-05
-8.836347115e-05
-8.787478873e-05
-8.373883611e-05
-8.063746645e-05
-8.638847066e-05
-8.798170893e-05
-7.838462625e-05
-7.627560262e-05
-7.454244769e-05
-7.316497795e-05
-8.776002505e-05
-8.737971075e-05
-8.729124238e-05
-8.747017273e-05
-8.780400822e-05
-8.788012929e-05
-8.760920173e-05
-8.775822062e-05
-8.766716928e-05
-8.76654085e-05
-7.374611596e-05
-8.772922592e-05
-8.780985081e-05
-8.780122153e-05
-8.79197105e-05
-8.786104445e-05
-8.82927925e-05
-8.834649634e-05
-8.840110968e-05
-8.818008064e-05
-8.811516454e-05
-8.823815006e-05
-8.800069918e-05
-8.793445159e-05
-8.80500811e-05
-8.84484034e-05
-8.849288133e-05
-8.853095642e-05
-8.860124217e-05
-8.856641216e-05
-8.863907715e-05
-8.869448357e-05
-8.866891585e-05
-8.871733735e-05
-8.746141248e-05
-8.736798918e-05
-8.726084343e-05
-8.717964374e-05
-8.735704614e-05
-8.726523083e-05
-8.696174336e-05
-8.692303527e-05
-8.712481213e-05
-8.704391075e-05
-8.687732043e-05
-8.700008038e-05
-8.711096598e-05
-8.678919403e-05
-8.714954311e-05
-8.767398685e-05
-8.721189806e-05
-8.707814413e-05
-8.761061326e-05
-8.688286471e-05
-8.72124001e-05
-8.331230492e-05
-8.037124644e-05
-7.830561663e-05
-8.494500071e-05
-8.73586614e-05
-8.613065438e-05
-7.663854922e-05
-7.51874104e-05
-7.396026194e-05
-8.672349213e-05
-8.665421046e-05
-8.67561248e-05
-8.693725977e-05
-8.742843784e-05
-8.752509893e-05
-8.743278158e-05
-8.758807235e-05
-8.75027763e-05
-8.758899639e-05
-7.537756755e-05
-7.461270434e-05
-8.765657549e-05
-8.773180889e-05
-8.775897004e-05
-8.787905972e-05
-8.781978249e-05
-8.829862782e-05
-8.835268818e-05
-8.840875671e-05
-8.81793967e-05
-8.811419684e-05
-8.824418182e-05
-8.798501949e-05
-8.791983419e-05
-8.804864774e-05
-8.845577395e-05
-8.849977894e-05
-8.853741747e-05
-8.860843081e-05
-8.857297507e-05
-8.706768858e-05
-8.694697317e-05
-8.685691864e-05
-8.698381862e-05
-8.71779921e-05
-8.708013775e-05
-8.67268609e-05
-8.661195898e-05
-8.655228885e-05
-8.675979188e-05
-8.666051144e-05
-8.650086966e-05
-8.660121966e-05
-8.673460979e-05
-8.647178765e-05
-8.634720871e-05
-8.646324568e-05
-8.654602425e-05
-8.640750457e-05
-8.620407607e-05
-8.604730829e-05
-8.665880887e-05
-8.659459854e-05
-8.318713662e-05
-8.061497647e-05
-7.876026211e-05
-7.711529179e-05
-8.451331814e-05
-8.668541705e-05
-8.566412725e-05
-7.591782924e-05
-8.64041067e-05
-8.632820391e-05
-8.629769582e-05
-8.624896145e-05
-8.725714724e-05
-8.735107986e-05
-8.735726442e-05
-8.751393761e-05
-8.743230865e-05
-8.755064482e-05
-7.723226736e-05
-7.631302287e-05
-7.554820331e-05
-8.76200429e-05
-8.769251872e-05
-8.774337766e-05
-8.786364924e-05
-8.780431381e-05
-8.830455045e-05
-8.835839253e-05
-8.818567585e-05
-8.812003216e-05
-8.824987162e-05
-8.798308409e-05
-8.791818254e-05
-8.805362449e-05
-8.687537775e-05
-8.67603012e-05
-8.665995847e-05
-8.689881361e-05
-8.709946269e-05
-8.700000762e-05
-8.640351007e-05
-8.629342483e-05
-8.616018749e-05
-8.637997962e-05
-8.625248302e-05
-8.630816592e-05
-8.641777094e-05
-8.654456906e-05
-8.617639833e-05
-8.602275193e-05
-8.588738274e-05
-8.582302689e-05
-8.607751079e-05
-8.59425927e-05
-8.548587357e-05
-8.562221046e-05
-8.555132081e-05
-8.642127068e-05
-8.328635158e-05
-8.104550943e-05
-7.93619256e-05
-7.781817112e-05
-7.667174214e-05
-8.437506767e-05
-8.606095071e-05
-8.541579155e-05
-8.603536116e-05
-8.613179671e-05
-8.606589108e-05
-8.596223779e-05
-8.5962507e-05
-8.718457684e-05
-8.727535169e-05
-8.731845446e-05
-8.74765974e-05
-8.739693294e-05
-8.753647853e-05
-7.935139001e-05
-7.829137758e-05
-7.739611465e-05
-8.760680794e-05
-8.767827967e-05
-8.774228627e-05
-8.786218677e-05
-8.780306962e-05
-8.819140203e-05
-8.812630404e-05
-8.798766066e-05
-8.792283916e-05
-8.805935067e-05
-8.679363964e-05
-8.668223018e-05
-8.657666331e-05
-8.68562347e-05
-8.705862274e-05
-8.695852011e-05
-8.603783499e-05
-8.590649668e-05
-8.596626867e-05
-8.619088476e-05
-8.606722986e-05
-8.622470341e-05
-8.633912512e-05
-8.646193601e-05
-8.58118874e-05
-8.569909551e-05
-8.561162394e-05
-8.554314263e-05
-8.551914652e-05
-8.555462409e-05
-8.518851246e-05
-8.518363029e-05
-8.522455755e-05
-8.540219278e-05
-8.583461022e-05
-8.442164835e-05
-8.380209329e-05
-8.169688226e-05
-8.313426224e-05
-8.013032493e-05
-7.870991976e-05
-7.762003952e-05
-8.569916827e-05
-8.549012273e-05
-8.552591316e-05
-8.519375842e-05
-8.54902537e-05
-8.569973579e-05
-8.58092244e-05
-8.579449786e-05
-8.568937483e-05
-8.558989066e-05
-8.559296839e-05
-8.714732394e-05
-8.723686187e-05
-8.730442642e-05
-8.746293315e-05
-8.73839017e-05
-8.753563452e-05
-8.180378791e-05
-8.061848348e-05
-7.955570618e-05
-7.861444465e-05
-8.760631317e-05
-8.767770487e-05
-8.774767775e-05
-8.786703984e-05
-8.780833014e-05
-8.799258649e-05
-8.792881272e-05
-8.675172285e-05
-8.664275811e-05
-8.653495024e-05
-8.683965279e-05
-8.70425938e-05
-8.694232383e-05
-8.585069008e-05
-8.572737715e-05
-8.588189667e-05
-8.610890654e-05
-8.598974819e-05
-8.618287393e-05
-8.62989109e-05
-8.642027387e-05
-8.5624044e-05
-8.550750499e-05
-8.537375106e-05
-8.528679609e-05
-8.531655476e-05
-8.522470307e-05
-8.522746066e-05
-8.492247434e-05
-8.493097266e-05
-8.49386779e-05
-8.487755258e-05
-8.506321319e-05
-8.471398905e-05
-8.429648005e-05
-8.108603652e-05
-8.266202349e-05
-8.349085692e-05
-7.973008178e-05
-8.511530177e-05
-8.513838839e-05
-8.508341853e-05
-8.502860146e-05
-8.525174053e-05
-8.502836863e-05
-8.532217907e-05
-8.545412857e-05
-8.54587488e-05
-8.535466623e-05
-8.522770804e-05
-8.53941383e-05
-8.713295392e-05
-8.722232451e-05
-8.730380796e-05
-8.746246749e-05
-8.738346514e-05
-8.754181181e-05
-8.464793791e-05
-8.340984641e-05
-8.21251524e-05
-8.098287799e-05
-7.976229972e-05
-8.761182835e-05
-8.768364933e-05
-8.775369497e-05
-8.78720457e-05
-8.781393262e-05
-8.673631237e-05
-8.662815526e-05
-8.65188922e-05
-8.683705528e-05
-8.703977801e-05
-8.693952259e-05
-8.576857363e-05
-8.564842574e-05
-8.583792078e-05
-8.606650226e-05
-8.594949759e-05
-8.616543346e-05
-8.628363867e-05
-8.640502347e-05
-8.554044325e-05
-8.542110299e-05
-8.509361942e-05
-8.499521209e-05
-8.49856151e-05
-8.507686289e-05
-8.489850006e-05
-8.489775064e-05
-8.473755588e-05
-8.462353435e-05
-8.464886196e-05
-8.471683395e-05
-8.476505172e-05
-8.458203229e-05
-8.476804214e-05
-8.481246186e-05
-8.490860637e-05
-8.461863035e-05
-8.226343198e-05
-8.089496259e-05
-8.41859146e-05
-8.420091763e-05
-8.480720862e-05
-8.491329936e-05
-8.493250061e-05
-8.478950622e-05
-8.489046741e-05
-8.514050569e-05
-8.526796591e-05
-8.510753833e-05
-8.498549141e-05
-8.503817662e-05
-8.530539344e-05
-8.713164425e-05
-8.722171333e-05
-8.730931586e-05
-8.746854292e-05
-8.738874749e-05
-8.754814917e-05
-8.788427658e-05
-8.676623111e-05
-8.521782729e-05
-8.393036842e-05
-8.240478928e-05
-8.761874051e-05
-8.768897533e-05
-8.673490083e-05
-8.662648179e-05
-8.651723329e-05
-8.68406496e-05
-8.704393986e-05
-8.694299322e-05
-8.572525985e-05
-8.560731658e-05
-8.581975999e-05
-8.604962204e-05
-8.593237726e-05
-8.616255218e-05
-8.628112846e-05
-8.640288434e-05
-8.549568884e-05
-8.537639224e-05
-8.478399832e-05
-8.46622861e-05
-8.468779561e-05
-8.478087693e-05
-8.45726463e-05
-8.471868932e-05
-8.450786845e-05
-8.445172716e-05
-8.433121548e-05
-8.438658551e-05
-8.446388529e-05
-8.450586756e-05
-8.441467071e-05
-8.427177818e-05
-8.458150842e-05
-8.499513933e-05
-8.498466195e-05
-8.49022108e-05
-8.519182302e-05
-8.37009502e-05
-8.223863551e-05
-8.52832527e-05
-8.470176545e-05
-8.533413347e-05
-8.467514272e-05
-8.471720503e-05
-8.476062794e-05
-8.463944687e-05
-8.479839016e-05
-8.506263111e-05
-8.518427785e-05
-8.492567576e-05
-8.481102122e-05
-8.495467773e-05
-8.525919111e-05
-8.713673742e-05
-8.722759958e-05
-8.731500566e-05
-8.747472748e-05
-8.739475743e-05
-9.139972099e-05
-9.069268708e-05
-8.889182936e-05
-8.761982463e-05
-8.571052604e-05
-8.378458006e-05
-8.673961565e-05
-8.663089829e-05
-8.652179531e-05
-8.684664499e-05
-8.704853826e-05
-8.694823919e-05
-8.570664795e-05
-8.558971604e-05
-8.581561997e-05
-8.604670438e-05
-8.592921222e-05
-8.616631385e-05
-8.628475916e-05
-8.64079193e-05
-8.54756363e-05
-8.535651432e-05
-8.461398102e-05
-8.449467714e-05
-8.434755728e-05
-8.446003631e-05
-8.439532394e-05
-8.464192797e-05
-8.424858243e-05
-8.419150254e-05
-8.402720414e-05
-8.407771384e-05
-8.417315985e-05
-8.428901492e-05
-8.431199967e-05
-8.415259072e-05
-8.409793372e-05
-8.449128654e-05
-8.432949835e-05
-8.514845831e-05
-8.505000005e-05
-8.508741303e-05
-8.521514246e-05
-8.477667143e-05
-8.542148134e-05
-8.582261944e-05
-8.560661809e-05
-8.627682109e-05
-8.563825395e-05
-8.649533265e-05
-8.461525431e-05
-8.47177289e-05
-8.469234308e-05
-8.438847726e-05
-8.502302808e-05
-8.514148067e-05
-8.484679711e-05
-8.473847265e-05
-8.491285553e-05
-8.523909491e-05
-8.71424345e-05
-8.723265637e-05
-9.521919856e-05
-9.502204921e-05
-9.307509754e-05
-9.210498683e-05
-8.981375868e-05
-8.763743244e-05
-8.55788312e-05
-8.674418496e-05
-8.663679182e-05
-8.6526823e-05
-8.570252976e-05
-8.558439731e-05
-8.581795555e-05
-8.605019684e-05
-8.593165694e-05
-8.617072308e-05
-8.628999058e-05
-8.641243039e-05
-8.54699465e-05
-8.535066445e-05
-8.453887858e-05
-8.442286344e-05
-8.418007201e-05
-8.428888395e-05
-8.431704191e-05
-8.460570098e-05
-8.395727491e-05
-8.388999413e-05
-8.385357796e-05
-8.39176646e-05
-8.400581282e-05
-8.405999688e-05
-8.408712165e-05
-8.386920672e-05
-8.401733066e-05
-8.428548608e-05
-8.429359877e-05
-8.409154543e-05
-8.525258454e-05
-8.526360034e-05
-8.501410048e-05
-8.514765796e-05
-8.480348333e-05
-8.57032137e-05
-8.610049554e-05
-8.611875819e-05
-8.625637565e-05
-8.780121425e-05
-8.756993338e-05
-8.652175165e-05
-8.756954776e-05
-8.450777386e-05
-8.437225188e-05
-8.464782877e-05
-8.416788478e-05
-8.50058932e-05
-8.512281056e-05
-8.480662655e-05
-8.470227476e-05
-8.489502943e-05
-8.523351426e-05
-9.934284026e-05
-9.95608134e-05
-9.749174205e-05
-9.720250091e-05
-9.46430082e-05
-9.258787031e-05
-8.998097474e-05
-8.570452337e-05
-8.558608533e-05
-8.582169539e-05
-8.605436597e-05
-8.593600069e-05
-8.547110338e-05
-8.535187953e-05
-8.450412861e-05
-8.438844816e-05
-8.410646842e-05
-8.421195525e-05
-8.427733701e-05
-8.459266974e-05
-8.379069186e-05
-8.37292755e-05
-8.37782718e-05
-8.384523971e-05
-8.39319182e-05
-8.379879e-05
-8.382985106e-05
-8.370407159e-05
-8.397485362e-05
-8.4082385e-05
-8.409284783e-05
-8.382461965e-05
-8.559675189e-05
-8.522129065e-05
-8.555526438e-05
-8.503756544e-05
-8.524757868e-05
-8.458486991e-05
-8.62451634e-05
-8.598048589e-05
-8.684826025e-05
-8.681330655e-05
-8.859375521e-05
-9.038559801e-05
-8.774462185e-05
-8.876680658e-05
-8.439431986e-05
-8.434501069e-05
-8.418525977e-05
-8.450023597e-05
-8.39384229e-05
-8.500100375e-05
-8.51181394e-05
-8.478968812e-05
-8.468802844e-05
-8.489018364e-05
-8.523512952e-05
-0.0001004723381
-0.0001035442547
-0.0001025866368
-0.0001029221967
-9.995669825e-05
-9.870356007e-05
-9.539689927e-05
-9.337867959e-05
-8.570780483e-05
-8.559040725e-05
-8.547407924e-05
-8.535559027e-05
-8.449159213e-05
-8.437464567e-05
-8.40673747e-05
-8.4171239e-05
-8.425990382e-05
-8.459159289e-05
-8.371400327e-05
-8.365751273e-05
-8.373225137e-05
-8.380567306e-05
-8.388603601e-05
-8.365044778e-05
-8.367464034e-05
-8.36258987e-05
-8.395512123e-05
-8.383950626e-05
-8.386054105e-05
-8.367057308e-05
-8.551626524e-05
-8.573766536e-05
-8.511517808e-05
-8.497032832e-05
-8.507787425e-05
-8.463985432e-05
-8.453112969e-05
-8.66472401e-05
-8.629055083e-05
-8.64634203e-05
-8.779602649e-05
-8.777122275e-05
-9.015201067e-05
-9.14537668e-05
-8.902634727e-05
-8.825941768e-05
-9.014914394e-05
-8.424629777e-05
-8.419140067e-05
-8.398467617e-05
-8.437382348e-05
-8.381606312e-05
-8.50022916e-05
-8.51193181e-05
-8.478585369e-05
-8.468546002e-05
-8.48911659e-05
-8.523844735e-05
-0.0001072254963
-0.0001052989173
-0.0001095179032
-0.0001059171409
-0.0001057574846
-0.0001020892742
-0.000100677149
-9.903373575e-05
-9.703328396e-05
-9.476490959e-05
-9.334247443e-05
-8.449047164e-05
-8.437129145e-05
-8.404970868e-05
-8.415302727e-05
-8.425440319e-05
-8.459556557e-05
-8.367301052e-05
-8.361958317e-05
-8.371248259e-05
-8.378329949e-05
-8.3866762e-05
-8.358248306e-05
-8.360025822e-05
-8.358473133e-05
-8.394822362e-05
-8.369801071e-05
-8.373304445e-05
-8.359912317e-05
-8.567810437e-05
-8.551438805e-05
-8.505498408e-05
-8.521191921e-05
-8.474883361e-05
-8.489108586e-05
-8.452650218e-05
-8.44423048e-05
-8.778426127e-05
-8.670584793e-05
-8.652679389e-05
-8.630283992e-05
-8.819864161e-05
-9.175156447e-05
-9.016932745e-05
-8.881623216e-05
-8.873076149e-05
-8.409640577e-05
-8.402797539e-05
-8.387700655e-05
-8.421231178e-05
-8.37655025e-05
-8.500539116e-05
-8.512262139e-05
-8.478803647e-05
-8.468818123e-05
-8.489472384e-05
-0.0001144186535
-0.0001126925563
-0.0001134811901
-0.0001094080799
-0.0001080831134
-0.0001065029355
-0.0001026913596
-0.0001042213407
-0.0001018979601
-9.972967382e-05
-9.677289927e-05
-9.841387509e-05
-9.558409511e-05
-9.368563769e-05
-8.449408779e-05
-8.437257202e-05
-8.404370601e-05
-8.414706099e-05
-8.425460692e-05
-8.459931996e-05
-8.365336544e-05
-8.360166248e-05
-8.370485011e-05
-8.377683116e-05
-8.385983529e-05
-8.354757301e-05
-8.356072794e-05
-8.356453327e-05
-8.394743782e-05
-8.363295638e-05
-8.367803821e-05
-8.356189937e-05
-8.578614506e-05
-8.557968977e-05
-8.547799371e-05
-8.502948913e-05
-8.518783579e-05
-8.459451783e-05
-8.476473886e-05
-8.443589468e-05
-8.43108719e-05
-8.816985064e-05
-8.753154543e-05
-8.659458399e-05
-8.655991405e-05
-8.621653251e-05
-8.825906843e-05
-9.209691052e-05
-9.137342568e-05
-8.925069415e-05
-9.014874377e-05
-9.102074546e-05
-8.815900219e-05
-8.400426304e-05
-8.393405733e-05
-8.382688975e-05
-8.411336603e-05
-8.374470781e-05
-8.479098324e-05
-8.469253953e-05
-0.0001183544082
-0.0001175523576
-0.0001159115782
-0.0001141504181
-0.0001102431561
-0.0001118897271
-0.0001097467029
-0.0001077532215
-0.0001038394548
-0.0001057919872
-0.000102819693
-0.0001006994135
-9.733937623e-05
-9.931458044e-05
-9.651590517e-05
-9.581133781e-05
-9.358412353e-05
-9.443835734e-05
-8.449627785e-05
-8.437580254e-05
-8.404338587e-05
-8.414709009e-05
-8.425717533e-05
-8.364579116e-05
-8.359450294e-05
-8.370319119e-05
-8.377557242e-05
-8.385904948e-05
-8.353112207e-05
-8.354154124e-05
-8.355627506e-05
-8.394916222e-05
-8.359918866e-05
-8.365340182e-05
-8.354407328e-05
-8.582267765e-05
-8.562997391e-05
-8.534573135e-05
-8.493776841e-05
-8.513044304e-05
-8.451659232e-05
-8.469006571e-05
-8.435612835e-05
-8.423232794e-05
-8.819586947e-05
-8.811592124e-05
-8.755113959e-05
-8.664211782e-05
-8.69548312e-05
-8.643019828e-05
-8.611039084e-05
-9.186829993e-05
-8.903870912e-05
-9.092490654e-05
-9.021966252e-05
-8.871890896e-05
-8.396118938e-05
-8.388796414e-05
-8.380199142e-05
-8.406626148e-05
-8.37402913e-05
-0.0001216645396
-0.0001212118077
-0.0001188615861
-0.0001202666826
-0.0001182697888
-0.0001160480242
-0.0001117966167
-0.00011389469
-0.0001114296247
-0.0001093320388
-0.0001050777282
-0.0001072289888
-0.0001039606868
-0.0001030434287
-0.0001019229894
-9.710792074e-05
-9.775395301e-05
-0.0001001405399
-9.881404549e-05
-9.659639181e-05
-9.598245379e-05
-9.339706594e-05
-9.47197841e-05
-8.404538676e-05
-8.414892363e-05
-8.364403038e-05
-8.359271305e-05
-8.370450814e-05
-8.377700578e-05
-8.38601336e-05
-8.352482109e-05
-8.353347221e-05
-8.355376485e-05
-8.358347259e-05
-8.364552923e-05
-8.353636076e-05
-8.58190615e-05
-8.556988905e-05
-8.528427861e-05
-8.487105515e-05
-8.506393351e-05
-8.447068831e-05
-8.464598795e-05
-8.431094466e-05
-8.418501966e-05
-8.830835577e-05
-8.794117457e-05
-8.760442142e-05
-8.674344281e-05
-8.709209942e-05
-8.64081303e-05
-8.608472126e-05
-9.157844033e-05
-8.97244463e-05
-9.093127301e-05
-9.092844266e-05
-8.875961794e-05
-8.39400891e-05
-8.386431e-05
-8.379278734e-05
-8.404092659e-05
-8.374363097e-05
-0.0001273316011
-0.0001261344587
-0.000120582612
-0.0001234037918
-0.0001206996603
-0.0001183064087
-0.0001137119907
-0.000115974326
-0.0001129578814
-0.0001121102541
-0.0001100506051
-0.000110860994
-0.0001055241664
-0.0001063932141
-0.000108689208
-0.0001078368223
-0.0001050025021
-0.0001036121103
-0.0001015899034
-0.0001028659462
-9.67100932e-05
-9.682733798e-05
-0.0001001038399
-9.865027096e-05
-9.657149349e-05
-9.588142711e-05
-9.357882664e-05
-9.446909098e-05
-8.364465612e-05
-8.359355706e-05
-8.352191799e-05
-8.353104931e-05
-8.355463069e-05
-8.357741171e-05
-8.364517998e-05
-8.353305748e-05
-8.578295819e-05
-8.552399231e-05
-8.52570447e-05
-8.483270358e-05
-8.503073332e-05
-8.444634295e-05
-8.462024562e-05
-8.428892033e-05
-8.415917546e-05
-8.835901099e-05
-8.79820509e-05
-8.759839693e-05
-8.677538426e-05
-8.71975426e-05
-8.643155161e-05
-8.608200005e-05
-9.188565309e-05
-9.01963358e-05
-9.126713849e-05
-9.063532343e-05
-8.893178165e-05
-8.944433648e-05
-8.393226744e-05
-8.385432739e-05
-8.379151404e-05
-8.402938693e-05
-8.375028847e-05
-0.0001312950626
-0.000129426393
-0.0001232025097
-0.0001263111044
-0.0001228132314
-0.0001218403631
-0.0001193756398
-0.000120308483
-0.0001145382557
-0.0001155741847
-0.0001178879174
-0.0001170149844
-0.000114118513
-0.000113082715
-0.0001111230958
-0.000112133348
-0.0001062969968
-0.0001074734027
-0.0001099099318
-0.0001087562996
-0.0001056448527
-0.000104435414
-0.0001019474876
-0.0001032891305
-9.689399303e-05
-9.759911336e-05
-0.0001013086876
-9.944447083e-05
-9.639053314e-05
-9.541182226e-05
-9.34643831e-05
-9.464639879e-05
-8.352212899e-05
-8.353123849e-05
-8.357464685e-05
-8.364645328e-05
-8.353349403e-05
-8.576724213e-05
-8.550290659e-05
-8.524389705e-05
-8.481214172e-05
-8.501603588e-05
-8.443609113e-05
-8.460804384e-05
-8.428114234e-05
-8.414740296e-05
-8.846198762e-05
-8.804832032e-05
-8.760792116e-05
-8.680637984e-05
-8.720063488e-05
-8.64451431e-05
-8.608441567e-05
-9.183133079e-05
-9.00642699e-05
-9.11908428e-05
-9.056653653e-05
-8.905418508e-05
-8.963746222e-05
-8.39305867e-05
-8.385194815e-05
-8.379432984e-05
-8.402575622e-05
-8.374786557e-05
-0.0001334500848
-0.0001324259938
-0.0001302531455
-0.0001310642547
-0.0001244489104
-0.0001254777162
-0.000128248008
-0.0001272082009
-0.0001245992025
-0.0001233443181
-0.0001208345711
-0.0001220083286
-0.0001157756124
-0.0001171893164
-0.0001195525256
-0.0001184567518
-0.0001148305237
-0.0001140314562
-0.0001120842062
-0.0001129729935
-0.000107142434
-0.0001081517548
-0.0001106324999
-0.0001096272463
-0.0001062576921
-0.0001048005797
-0.0001025032834
-0.00010388183
-9.695874905e-05
-9.785762086e-05
-0.000101620004
-0.0001005260856
-9.624702216e-05
-9.531260002e-05
-9.376148955e-05
-9.445113392e-05
-8.357392653e-05
-8.365259418e-05
-8.576505206e-05
-8.549350605e-05
-8.523943688e-05
-8.480330143e-05
-8.501244884e-05
-8.443398838e-05
-8.460387471e-05
-8.428041474e-05
-8.414396143e-05
-8.854790212e-05
-8.807839913e-05
-8.762126527e-05
-8.683687338e-05
-8.721632184e-05
-8.645704656e-05
-8.608981443e-05
-9.190308629e-05
-9.267219866e-05
-9.007616609e-05
-9.12142059e-05
-9.066484199e-05
-8.907815209e-05
-8.962574066e-05
-8.393171447e-05
-8.385282126e-05
-8.380102372e-05
-8.402525418e-05
-0.0001357277943
-0.0001350196253
-0.0001320067968
-0.0001334578556
-0.000126045139
-0.0001274051319
-0.0001303278259
-0.0001289572974
-0.0001258246048
-0.0001247248292
-0.0001221524872
-0.0001231824572
-0.0001171843105
-0.0001183263084
-0.0001206975066
-0.0001197522506
-0.0001159877575
-0.0001145983988
-0.0001126122297
-0.0001137916261
-0.0001076557019
-0.000108919121
-0.0001113774924
-0.0001101257949
-0.0001068364727
-0.0001052846637
-0.0001029353443
-0.0001043151133
-9.71794143e-05
-9.913672693e-05
-9.813351062e-05
-0.0001017891918
-0.0001006343664
-9.642583609e-05
-9.541505278e-05
-9.369476902e-05
-9.449702338e-05
-8.576933033e-05
-8.549162885e-05
-8.524031728e-05
-8.480209362e-05
-8.501449338e-05
-8.44347087e-05
-8.460398385e-05
-8.428269211e-05
-8.414436161e-05
-8.85821355e-05
-8.808940765e-05
-8.763652295e-05
-8.686685032e-05
-8.723911014e-05
-8.646851347e-05
-8.609483484e-05
-9.201668581e-05
-9.290174785e-05
-9.010020585e-05
-9.134007996e-05
-9.073903493e-05
-8.908231393e-05
-8.959155821e-05
-8.393345342e-05
-8.38553533e-05
-8.402798267e-05
-0.0001367270597
-0.0001368408994
-0.0001333767141
-0.0001351080136
-0.0001274826791
-0.0001286681072
-0.0001315357658
-0.0001304523175
-0.0001269097847
-0.0001255266252
-0.0001228931942
-0.0001242054859
-0.0001179756509
-0.0001194988072
-0.0001216503661
-0.0001204319778
-0.0001162697299
-0.0001151889737
-0.0001130279416
-0.0001141667453
-0.0001081708397
-0.0001094173567
-0.0001118343571
-0.0001106221025
-0.0001072405576
-0.0001058026901
-0.0001031729043
-0.0001046289835
-9.738952213e-05
-9.972848056e-05
-9.853178199e-05
-0.0001019637784
-0.0001007585233
-9.664239769e-05
-9.555066208e-05
-9.369997861e-05
-9.459693683e-05
-8.577516564e-05
-8.549390623e-05
-8.524389705e-05
-8.480362885e-05
-8.501850243e-05
-8.443686966e-05
-8.460691606e-05
-8.428552246e-05
-8.414658078e-05
-8.858901128e-05
-8.809575957e-05
-8.765191888e-05
-8.689584502e-05
-8.726371743e-05
-8.647741197e-05
-8.609694487e-05
-9.208348638e-05
-9.294121992e-05
-9.012523515e-05
-9.143367788e-05
-9.078040603e-05
-8.908425662e-05
-8.958601393e-05
-0.0001377461303
-0.0001376289583
-0.0001336831047
-0.0001357946021
-0.000128318934
-0.0001297840936
-0.0001324306359
-0.0001311184169
-0.0001276096009
-0.0001262171281
-0.0001235517848
-0.000124865619
-0.0001189928444
-0.0001198039681
-0.0001222401042
-0.000120981189
-0.0001177108788
-0.0001165763751
-0.0001153755438
-0.0001133839032
-0.0001144090929
-0.0001086059929
-0.0001098309222
-0.0001122257236
-0.0001110248777
-0.0001075741748
-0.0001060963696
-0.0001033668013
-0.0001048239865
-9.763754497e-05
-9.983653581e-05
-9.86895393e-05
-0.0001021202042
-0.0001008725085
-9.678055358e-05
-9.565707296e-05
-9.374445654e-05
-9.469698125e-05
-8.578042616e-05
-8.549720224e-05
-8.524875739e-05
-8.48063064e-05
-8.502207493e-05
-8.859000809e-05
-8.810215513e-05
-8.766651445e-05
-8.692184929e-05
-8.728562534e-05
-8.648230141e-05
-8.609892393e-05
-9.214263991e-05
-9.293288167e-05
-9.015197429e-05
-9.148225945e-05
-9.08062284e-05
-8.908942982e-05
-8.959841216e-05
-0.0001388257224
-0.0001385891519
-0.0001347536163
-0.000136484261
-0.000129041844
-0.0001305205806
-0.0001333127293
-0.0001320319279
-0.0001281031437
-0.0001267064363
-0.0001240369893
-0.0001253507799
-0.0001191587507
-0.0001201578052
-0.000122717116
-0.0001213792566
-0.0001182581836
-0.0001168728559
-0.0001156925136
-0.0001137595973
-0.0001147878284
-0.0001089694124
-0.0001101866801
-0.0001125799972
-0.0001113710896
-0.0001077998022
-0.000106299216
-0.0001035130699
-0.0001049580533