/*--------------------------------*- C++ -*----------------------------------*\
  =========                 |
  \\      /  F ield         | OpenFOAM: The Open Source CFD Toolbox
   \\    /   O peration     | Website:  https://openfoam.org
    \\  /    A nd           | Version:  8
     \\/     M anipulation  |
\*---------------------------------------------------------------------------*/






FoamFile
{
    version     2.0;
    format      ascii;
    class       volSymmTensorField;
    location    "0";
    object      TauDDES;
}
// * * * * * * * * * * * * * * * * * * * * * * * * * * * * * * * * * * * * * //

dimensions      [0 2 -2 0 0 0 0];


internalField   nonuniform List<symmTensor>
26254
(
( 1.550913839e-05 -5.439070264e-06 6.192489366e-08 1.051436811e-05 1.808350305e-07 1.160251486e-05 )
( 1.635868102e-05 -5.395937023e-06 6.819644938e-08 1.178042658e-05 1.360075714e-07 1.237938432e-05 )
( 1.48391382e-05 -5.417445209e-06 7.821363113e-08 9.631219655e-06 1.223277621e-07 1.126961524e-05 )
( 2.035060606e-05 -6.333726105e-06 1.371212903e-07 1.542696009e-05 1.10372369e-07 1.478879312e-05 )
( 1.59056508e-05 -5.062690889e-06 6.26336174e-08 1.156646704e-05 5.542812431e-08 1.243239331e-05 )
( 1.496090408e-05 -5.169094038e-06 7.233511212e-08 1.022527704e-05 5.416478288e-08 1.165642061e-05 )
( 1.380259891e-05 -5.397811492e-06 1.196352457e-07 8.295126463e-06 1.954561846e-08 1.07947144e-05 )
( 1.381247876e-05 -5.665431672e-06 1.416639179e-07 7.777733117e-06 6.779131922e-08 1.05664376e-05 )
( 1.787861765e-05 -5.314544978e-06 9.763986952e-08 1.335113393e-05 1.126366289e-08 1.380612866e-05 )
( 2.741540084e-05 -8.852166502e-06 2.854202421e-07 1.956345295e-05 6.963895771e-08 1.786932989e-05 )
( 1.521193917e-05 -4.929952411e-06 6.638058636e-08 1.082526614e-05 -7.052475048e-09 1.217983845e-05 )
( 1.394087667e-05 -5.054953363e-06 8.675235819e-08 9.040826626e-06 -2.882578443e-08 1.119924491e-05 )
( 1.304375837e-05 -5.305641935e-06 1.63979081e-07 7.479417945e-06 -8.633338666e-08 1.060506929e-05 )
( 1.355337281e-05 -5.562594197e-06 1.487187973e-07 7.668731087e-06 1.596233901e-08 1.05654326e-05 )
( 1.305267597e-05 -5.522102583e-06 1.916241246e-07 7.110348633e-06 -4.992178049e-08 1.040080406e-05 )
( 1.298695952e-05 -5.774213605e-06 2.287453356e-07 6.522872354e-06 -6.276711595e-09 1.014403733e-05 )
( 1.31057277e-05 -5.656779194e-06 2.01329982e-07 6.911782293e-06 -1.498443325e-08 1.029169016e-05 )
( 1.338022685e-05 -5.817386409e-06 1.97288557e-07 6.88967566e-06 3.471156873e-08 1.028634142e-05 )
( 2.452831723e-05 -7.341098808e-06 2.464404929e-07 1.736010745e-05 -2.301143276e-08 1.67094604e-05 )
( 1.5764419e-05 -4.742922556e-06 6.88734616e-08 1.152272853e-05 -6.503927352e-08 1.293119476e-05 )
( 1.797440382e-05 -5.015200713e-06 9.938788992e-08 1.338515813e-05 -6.202868974e-08 1.425590108e-05 )
( 3.839183046e-05 -1.314589281e-05 4.746535183e-07 2.332460645e-05 3.282006844e-08 2.093042713e-05 )
( 1.400895781e-05 -4.719895514e-06 7.099127686e-08 9.568911082e-06 -8.651833383e-08 1.169495499e-05 )
( 1.302720557e-05 -4.944014108e-06 1.235306115e-07 8.011293176e-06 -1.339902127e-07 1.100399732e-05 )
( 1.272661211e-05 -5.172291822e-06 1.656800634e-07 7.27996985e-06 -1.389821023e-07 1.064005482e-05 )
( 1.221721141e-05 -5.288372449e-06 2.191566182e-07 6.450368801e-06 -1.627940804e-07 1.029040141e-05 )
( 1.232065733e-05 -5.41627287e-06 2.376314683e-07 6.359469808e-06 -1.437396122e-07 1.02119875e-05 )
( 1.264639923e-05 -5.446645901e-06 2.169501272e-07 6.713782113e-06 -1.132796967e-07 1.03280363e-05 )
( 1.233373132e-05 -5.570625945e-06 2.562280201e-07 6.065595699e-06 -1.076823111e-07 1.003021862e-05 )
( 1.234549927e-05 -5.702315775e-06 2.699435413e-07 5.844633051e-06 -7.457956741e-08 9.900967598e-06 )
( 1.224055632e-05 -5.784237601e-06 2.838068554e-07 5.501689429e-06 -7.150497794e-08 9.783002497e-06 )
( 1.273333328e-05 -5.892767604e-06 2.508442378e-07 5.898781637e-06 -1.586047915e-08 9.93566573e-06 )
( 2.148261956e-05 -5.952251286e-06 2.014445215e-07 1.517661713e-05 -1.140548704e-07 1.575934766e-05 )
( 3.528194793e-05 -1.12736725e-05 4.71208466e-07 2.102289545e-05 -5.902767342e-08 1.950020669e-05 )
( 1.458778206e-05 -4.491590971e-06 6.305198497e-08 1.034446905e-05 -1.300982433e-07 1.25321385e-05 )
( 1.751507625e-05 -4.829737918e-06 9.80394006e-08 1.288296971e-05 -1.127094151e-07 1.423532194e-05 )
( 5.226694338e-05 -1.811104448e-05 5.89712954e-07 2.483256139e-05 1.537226524e-08 2.288525502e-05 )
( 1.295468064e-05 -4.595587598e-06 9.306905469e-08 8.354664715e-06 -1.66384396e-07 1.14541499e-05 )
( 1.212490861e-05 -5.087903901e-06 1.96989717e-07 6.599112112e-06 -1.869731392e-07 1.048859667e-05 )
( 1.222708306e-05 -4.911712495e-06 1.628685027e-07 6.990087059e-06 -1.849925582e-07 1.07496171e-05 )
( 1.271107885e-05 -4.785509191e-06 1.207902898e-07 7.812825061e-06 -1.700579588e-07 1.108939796e-05 )
( 1.153306494e-05 -5.336425147e-06 2.731182747e-07 5.520001196e-06 -1.974091504e-07 9.910798326e-06 )
( 1.145850092e-05 -5.162813522e-06 2.469242872e-07 5.623626748e-06 -2.138249329e-07 1.008176514e-05 )
( 1.176600472e-05 -5.479209904e-06 2.930290179e-07 5.522366791e-06 -1.858621346e-07 9.921979654e-06 )
( 1.204687487e-05 -5.544864052e-06 2.838889941e-07 5.7458019e-06 -1.534944829e-07 9.97472398e-06 )
( 1.167295795e-05 -5.617740044e-06 3.151430974e-07 5.157487067e-06 -1.43138621e-07 9.645263162e-06 )
( 1.177747617e-05 -5.705647709e-06 3.112149045e-07 5.095616871e-06 -1.135495182e-07 9.595471965e-06 )
( 1.161033924e-05 -5.717638487e-06 2.871761922e-07 4.803687261e-06 -8.65570513e-08 9.382025382e-06 )
( 1.205192439e-05 -5.857062661e-06 2.715487994e-07 5.039102234e-06 -5.337570741e-08 9.54812549e-06 )
( 1.890277417e-05 -4.991999504e-06 2.086096345e-07 1.296794471e-05 -1.894782287e-07 1.498812981e-05 )
( 3.205938265e-05 -9.512787983e-06 4.695358484e-07 1.861410419e-05 -1.607046158e-07 1.822573722e-05 )
( 4.996647476e-05 -1.632272324e-05 6.18520744e-07 2.268171374e-05 -6.806043729e-08 2.136131116e-05 )
( 1.361999875e-05 -4.297467513e-06 5.988020746e-08 9.322475307e-06 -1.803672802e-07 1.234589217e-05 )
( 1.58706298e-05 -4.388073194e-06 9.118976863e-08 1.142520341e-05 -1.668287837e-07 1.371482813e-05 )
( 6.287793803e-05 -2.098516052e-05 6.423841228e-07 2.339718412e-05 -2.499773899e-08 2.335151294e-05 )
( 1.213663654e-05 -4.446627827e-06 9.880047003e-08 7.463693692e-06 -2.07444387e-07 1.135072034e-05 )
( 1.216710461e-05 -4.74300532e-06 1.465707129e-07 7.149855719e-06 -2.013996294e-07 1.095207608e-05 )
( 1.149547279e-05 -5.00405622e-06 2.21182944e-07 5.880966455e-06 -2.152551986e-07 1.033979697e-05 )
( 1.145419174e-05 -4.82786254e-06 1.865381591e-07 6.128387213e-06 -2.113734894e-07 1.052970947e-05 )
( 1.106354466e-05 -5.321991011e-06 2.995990371e-07 4.935204288e-06 -2.045088365e-07 9.602577848e-06 )
( 1.068593338e-05 -5.157151463e-06 2.850379985e-07 4.714122042e-06 -2.175658551e-07 9.544301065e-06 )
( 1.079315371e-05 -5.048665116e-06 2.619933639e-07 4.899989563e-06 -2.235454133e-07 9.845216482e-06 )
( 1.107619755e-05 -5.424566098e-06 3.138347608e-07 4.793618245e-06 -1.904643483e-07 9.474237231e-06 )
( 1.137852178e-05 -5.52674328e-06 3.215524771e-07 4.965007975e-06 -1.813044292e-07 9.60367106e-06 )
( 1.119038097e-05 -5.554211384e-06 3.208715498e-07 4.630942385e-06 -1.50424242e-07 9.331013644e-06 )
( 1.10169849e-05 -5.524863354e-06 3.033918858e-07 4.3893765e-06 -1.299346906e-07 9.128018974e-06 )
( 1.113552389e-05 -5.597784821e-06 2.770316883e-07 4.324428119e-06 -9.370690179e-08 9.060245247e-06 )
( 1.103408977e-05 -5.551324193e-06 2.886898187e-07 4.313181762e-06 -1.095420501e-07 9.057082025e-06 )
( 1.142681504e-05 -5.707368473e-06 2.590243753e-07 4.484524197e-06 -6.49701235e-08 9.139873328e-06 )
( 1.622887976e-05 -4.29754391e-06 1.631179032e-07 1.118801538e-05 -1.90156328e-07 1.426861581e-05 )
( 2.883106208e-05 -7.9434285e-06 4.776091487e-07 1.62177621e-05 -2.131428261e-07 1.706442345e-05 )
( 1.460603653e-05 -4.163772701e-06 8.248073868e-08 1.026579957e-05 -1.92158538e-07 1.327378959e-05 )
( 1.958999565e-05 -4.938289294e-06 3.082476496e-07 1.290226737e-05 -1.978696247e-07 1.532929855e-05 )
( 4.745291517e-05 -1.449250158e-05 6.439172466e-07 2.040087929e-05 -1.575071735e-07 1.987319229e-05 )
( 6.261804083e-05 -1.962562237e-05 6.65863638e-07 2.117327494e-05 -8.534372853e-08 2.177198257e-05 )
( 1.229267491e-05 -4.141487352e-06 6.239693562e-08 7.961188203e-06 -1.939465193e-07 1.192420677e-05 )
( 6.387983012e-05 -2.010496974e-05 5.654997608e-07 1.99378519e-05 -2.981213143e-08 2.298465915e-05 )
( 1.156156304e-05 -4.627912858e-06 1.470219786e-07 6.505475085e-06 -2.188980943e-07 1.086954762e-05 )
( 1.115949362e-05 -4.585340776e-06 1.562929981e-07 6.003253475e-06 -2.173320865e-07 1.071732913e-05 )
( 1.183683162e-05 -4.286353942e-06 7.946748326e-08 7.285178526e-06 -2.140075139e-07 1.14706736e-05 )
( 1.128067015e-05 -4.39930318e-06 1.150379347e-07 6.404045507e-06 -2.102473644e-07 1.102412716e-05 )
( 1.069235259e-05 -4.927419468e-06 2.403183998e-07 4.98461759e-06 -2.181404284e-07 9.990376384e-06 )
( 1.096729557e-05 -4.780350537e-06 1.953952875e-07 5.533252533e-06 -2.152678462e-07 1.035136756e-05 )
( 1.034095294e-05 -5.125508778e-06 2.874239726e-07 4.372214335e-06 -2.108520789e-07 9.26973371e-06 )
( 1.031356987e-05 -5.154855899e-06 2.916113999e-07 4.266135875e-06 -2.0304293e-07 9.139694157e-06 )
( 1.00990419e-05 -4.964419077e-06 2.613220147e-07 4.233558684e-06 -2.087363669e-07 9.307648725e-06 )
( 1.01703954e-05 -4.892913239e-06 2.482705668e-07 4.407200777e-06 -2.09795374e-07 9.57580778e-06 )
( 1.038208848e-05 -5.229057479e-06 3.049130441e-07 4.237545454e-06 -1.965264715e-07 9.086079444e-06 )
( 1.048244485e-05 -5.285202406e-06 3.113594857e-07 4.260198693e-06 -1.900209554e-07 9.091119864e-06 )
( 1.065402103e-05 -5.35845129e-06 3.171874141e-07 4.335508947e-06 -1.811904298e-07 9.134476386e-06 )
( 1.07822998e-05 -5.436570063e-06 3.135745033e-07 4.280524536e-06 -1.513781314e-07 9.062714525e-06 )
( 1.07238593e-05 -5.405497177e-06 3.17951617e-07 4.292501217e-06 -1.630484547e-07 9.075005437e-06 )
( 1.000534485e-05 -5.12389488e-06 2.759905158e-07 3.697902457e-06 -1.303556729e-07 8.42679583e-06 )
( 1.011562745e-05 -5.18101524e-06 2.479766579e-07 3.675273547e-06 -9.887011743e-08 8.368952876e-06 )
( 1.004836213e-05 -5.15201782e-06 2.591769146e-07 3.673324954e-06 -1.120379238e-07 8.380955478e-06 )
( 1.037420589e-05 -5.277905075e-06 2.350507771e-07 3.765666179e-06 -7.738589858e-08 8.440482816e-06 )
( 1.322665594e-05 -3.934209872e-06 7.546982062e-08 8.967253962e-06 -1.780685324e-07 1.290082491e-05 )
( 1.438381332e-05 -3.911224212e-06 1.537553942e-07 9.762278751e-06 -1.523402631e-07 1.374997919e-05 )
( 4.471308785e-05 -1.266892286e-05 6.545278666e-07 1.808386878e-05 -2.110226944e-07 1.840536424e-05 )
( 2.51558231e-05 -6.417353688e-06 4.819949027e-07 1.406680531e-05 -2.056604558e-07 1.608044477e-05 )
( 1.870734923e-05 -4.707307198e-06 3.323051487e-07 1.208191588e-05 -1.793179081e-07 1.505737964e-05 )
( 6.070577729e-05 -1.770058589e-05 6.578850957e-07 1.873368819e-05 -1.36846225e-07 2.02258525e-05 )
( 6.250490696e-05 -1.844656617e-05 4.894629342e-07 1.770674498e-05 -4.930574704e-08 2.157646486e-05 )
( 1.129386419e-05 -3.998412467e-06 5.601408404e-08 6.910875982e-06 -1.690131199e-07 1.175509897e-05 )
( 1.127490214e-05 -4.268936209e-06 9.110408428e-08 6.587702956e-06 -2.055472237e-07 1.126496409e-05 )
( 5.059649629e-05 -1.477186834e-05 3.553361125e-07 1.48167037e-05 2.317638703e-08 2.177689748e-05 )
( 1.053368396e-05 -4.527405054e-06 1.603573025e-07 5.295972187e-06 -1.962429224e-07 1.045360477e-05 )
( 1.045122463e-05 -4.672397608e-06 1.903458866e-07 5.022873211e-06 -2.036748583e-07 1.01757214e-05 )
( 1.063634863e-05 -4.360436833e-06 1.179587912e-07 5.687326393e-06 -1.884738197e-07 1.081841947e-05 )
( 1.023166442e-05 -4.807086952e-06 2.211151582e-07 4.591301149e-06 -2.003228303e-07 9.808242794e-06 )
( 9.546237379e-06 -4.86268209e-06 2.604175506e-07 3.764177563e-06 -1.929363549e-07 8.736222298e-06 )
( 9.836678146e-06 -4.985688065e-06 2.782007584e-07 3.940651823e-06 -2.021421466e-07 8.902271475e-06 )
( 9.214239981e-06 -4.743619684e-06 2.542723223e-07 3.47180503e-06 -1.742309053e-07 8.288596291e-06 )
( 9.626492101e-06 -4.825767974e-06 2.454056869e-07 3.884824764e-06 -1.949360779e-07 9.080804375e-06 )
( 9.316725482e-06 -4.75078923e-06 2.404453596e-07 3.610370186e-06 -1.822800755e-07 8.664242159e-06 )
( 9.613109796e-06 -4.729718057e-06 2.243566541e-07 3.961353286e-06 -1.836880585e-07 9.274670447e-06 )
( 9.356325791e-06 -4.830999387e-06 2.670321066e-07 3.520191513e-06 -1.73721844e-07 8.32315618e-06 )
( 9.429806596e-06 -4.873737453e-06 2.732654423e-07 3.53866244e-06 -1.702606482e-07 8.320028428e-06 )
( 9.685644727e-06 -4.980809535e-06 2.843808034e-07 3.645568086e-06 -1.642879681e-07 8.409054317e-06 )
( 9.795943697e-06 -5.039693406e-06 2.809838406e-07 3.625186309e-06 -1.442421649e-07 8.36097297e-06 )
( 9.724260053e-06 -5.008348126e-06 2.827680987e-07 3.621856195e-06 -1.519527331e-07 8.360762877e-06 )
( 8.234735105e-06 -4.317682851e-06 2.086937201e-07 2.781063358e-06 -1.087233699e-07 7.061906217e-06 )
( 8.318518667e-06 -4.348333277e-06 1.8921736e-07 2.761799351e-06 -8.975047194e-08 7.028938398e-06 )
( 8.272912055e-06 -4.329828698e-06 1.994740302e-07 2.780304612e-06 -9.927644129e-08 7.043669484e-06 )
( 8.474390597e-06 -4.409041139e-06 1.822655378e-07 2.799325557e-06 -7.827543413e-08 7.066626949e-06 )
( 1.159590374e-05 -3.732521236e-06 5.781194901e-08 7.514176104e-06 -1.356385297e-07 1.241886821e-05 )
( 1.270484063e-05 -3.59012256e-06 1.519985489e-07 8.435985364e-06 -1.074610481e-07 1.335382422e-05 )
( 4.179074676e-05 -1.092139883e-05 6.49921958e-07 1.582011282e-05 -2.252198215e-07 1.699791028e-05 )
( 5.942001007e-05 -1.610985782e-05 6.561785995e-07 1.672038525e-05 -1.787889801e-07 1.871077075e-05 )
( 2.259667599e-05 -5.36915968e-06 4.932029469e-07 1.203671309e-05 -1.892723134e-07 1.522484581e-05 )
( 1.689742567e-05 -4.157702278e-06 3.362509347e-07 1.081488335e-05 -1.494113064e-07 1.464660181e-05 )
( 6.023528476e-05 -1.64275134e-05 3.952497138e-07 1.515908662e-05 -5.17201677e-08 2.025531467e-05 )
( 4.953992902e-05 -1.36906765e-05 3.054930744e-07 1.341463758e-05 2.622950213e-08 2.088693327e-05 )
( 1.060348495e-05 -4.159362106e-06 8.966643605e-08 5.862241323e-06 -1.751187995e-07 1.118213731e-05 )
( 1.04282044e-05 -3.959336937e-06 6.328680513e-08 5.955848337e-06 -1.31180883e-07 1.143059308e-05 )
( 1.103882551e-05 -3.846307209e-06 4.195859304e-08 6.819183909e-06 -1.372393541e-07 1.193542812e-05 )
( 1.016597707e-05 -4.122572591e-06 9.449149019e-08 5.433213573e-06 -1.475866753e-07 1.103134855e-05 )
( 3.178176121e-05 -8.648230505e-06 3.185520541e-07 1.052268181e-05 1.242493965e-07 1.992116995e-05 )
( 9.911931556e-06 -4.60350202e-06 1.888242309e-07 4.45247997e-06 -1.801655571e-07 9.940210475e-06 )
( 9.942326869e-06 -4.481014003e-06 1.598817505e-07 4.686041393e-06 -1.72169635e-07 1.026501013e-05 )
( 9.839433915e-06 -4.700430054e-06 2.041614522e-07 4.274695129e-06 -1.804270084e-07 9.613183465e-06 )
( 1.007311221e-05 -4.300312412e-06 1.265713649e-07 5.045277703e-06 -1.667312688e-07 1.068371785e-05 )
( 8.575815627e-06 -4.453163001e-06 2.129852419e-07 3.133805876e-06 -1.544521524e-07 7.907966392e-06 )
( 8.823459211e-06 -4.570199053e-06 2.309826073e-07 3.266680551e-06 -1.639935334e-07 8.06056596e-06 )
( 7.66649373e-06 -4.038835414e-06 1.79093405e-07 2.62916501e-06 -1.190024932e-07 6.943221251e-06 )
( 9.068011423e-06 -4.643879947e-06 2.214916037e-07 3.480147825e-06 -1.725148877e-07 8.586426702e-06 )
( 9.029068679e-06 -4.611181794e-06 2.145607141e-07 3.478769258e-06 -1.682329014e-07 8.622670975e-06 )
( 8.298342436e-06 -4.327466741e-06 1.908548342e-07 2.972077937e-06 -1.415958337e-07 7.773669495e-06 )
( 9.1968177e-06 -4.583862392e-06 1.999656263e-07 3.670943897e-06 -1.59807314e-07 9.018390301e-06 )
( 8.940139196e-06 -4.545081538e-06 2.026761763e-07 3.442774641e-06 -1.579229831e-07 8.655009879e-06 )
( 7.730860489e-06 -4.073799118e-06 1.892457107e-07 2.653555839e-06 -1.207999674e-07 6.940985259e-06 )
( 7.799671948e-06 -4.115676347e-06 1.96510868e-07 2.659062602e-06 -1.20529819e-07 6.944845154e-06 )
( 7.957706657e-06 -4.191623702e-06 2.055665789e-07 2.71797694e-06 -1.199661313e-07 7.001892754e-06 )
( 8.083935427e-06 -4.249423e-06 2.092944982e-07 2.731007044e-06 -1.136373484e-07 7.004300187e-06 )
( 8.027167496e-06 -4.220381015e-06 2.092338605e-07 2.735029966e-06 -1.169000043e-07 7.001788163e-06 )
( 6.694344847e-06 -3.551515874e-06 1.514762999e-07 2.127941116e-06 -8.151887698e-08 5.769920335e-06 )
( 6.748028682e-06 -3.568197144e-06 1.407891119e-07 2.1187941e-06 -7.22845428e-08 5.74880869e-06 )
( 6.720376405e-06 -3.560736104e-06 1.464170936e-07 2.125925676e-06 -7.729279616e-08 5.760988643e-06 )
( 6.882507932e-06 -3.618941264e-06 1.378062109e-07 2.139569915e-06 -6.698436295e-08 5.797416179e-06 )
( 1.043489738e-05 -3.563584414e-06 7.548742076e-08 6.429852874e-06 -8.343000246e-08 1.222166247e-05 )
( 1.041265114e-05 -3.836645647e-06 5.97708123e-08 6.091096111e-06 -1.106922198e-07 1.167322534e-05 )
( 1.13235883e-05 -3.376435188e-06 1.440370028e-07 7.328650099e-06 -8.419378617e-08 1.30235494e-05 )
( 3.87957989e-05 -9.32329749e-06 6.266310493e-07 1.362881721e-05 -2.339199057e-07 1.570660788e-05 )
( 5.79047919e-05 -1.450195305e-05 6.402098052e-07 1.47367673e-05 -2.022900532e-07 1.723388959e-05 )
( 5.837271601e-05 -1.470462666e-05 3.307525276e-07 1.305195019e-05 -6.292955135e-08 1.903893826e-05 )
( 2.476546797e-05 -5.61243678e-06 5.507042147e-07 1.160381453e-05 -2.177908556e-07 1.494768821e-05 )
( 1.537339085e-05 -3.825207841e-06 3.093245766e-07 9.814263649e-06 -1.309527988e-07 1.429899294e-05 )
( 1.830802285e-05 -4.273817012e-06 4.434236303e-07 1.03181128e-05 -1.705414547e-07 1.464532215e-05 )
( 4.73912296e-05 -1.220159356e-05 2.418387339e-07 1.162515764e-05 3.48339988e-08 2.004937414e-05 )
( 3.033840585e-05 -7.858523531e-06 3.056185278e-07 9.593208233e-06 1.417856623e-07 1.947881537e-05 )
( 9.732699255e-06 -4.087564321e-06 9.650806732e-08 4.974297553e-06 -1.194882628e-07 1.084341511e-05 )
( 9.783838323e-06 -3.924647899e-06 8.120385786e-08 5.277385753e-06 -1.054435188e-07 1.120417437e-05 )
( 9.71478039e-06 -4.205435289e-06 1.151295166e-07 4.788206752e-06 -1.33050321e-07 1.064738535e-05 )
( 2.072371535e-05 -5.439219876e-06 2.909621628e-07 8.614992112e-06 2.167757032e-07 1.77800157e-05 )
( 9.433189007e-06 -4.481476481e-06 1.682664532e-07 4.112380338e-06 -1.496147775e-07 9.770475117e-06 )
( 9.215725186e-06 -4.541160251e-06 1.814372155e-07 3.784361979e-06 -1.474806908e-07 9.24654978e-06 )
( 9.583047358e-06 -4.371016075e-06 1.432999284e-07 4.403097591e-06 -1.44388494e-07 1.023865661e-05 )
( 7.308398381e-06 -3.863384336e-06 1.487544239e-07 2.466920705e-06 -1.054506598e-07 6.757431947e-06 )
( 7.432253369e-06 -3.927167199e-06 1.631290729e-07 2.522404657e-06 -1.11184697e-07 6.809892966e-06 )
( 6.277095508e-06 -3.344651304e-06 1.210023015e-07 2.017000497e-06 -7.724203499e-08 5.653087101e-06 )
( 8.110123417e-06 -4.237533176e-06 1.74459899e-07 2.88837532e-06 -1.30997762e-07 7.711978469e-06 )
( 8.143360901e-06 -4.235466804e-06 1.702302086e-07 2.953647709e-06 -1.292957563e-07 7.803924746e-06 )
( 7.240368632e-06 -3.829793059e-06 1.378981977e-07 2.443283847e-06 -9.994502648e-08 6.762326848e-06 )
( 8.646833521e-06 -4.410851943e-06 1.815291313e-07 3.276873258e-06 -1.379045642e-07 8.50862034e-06 )
( 8.594103747e-06 -4.380689006e-06 1.724714167e-07 3.268340834e-06 -1.298476633e-07 8.525343219e-06 )
( 7.961400115e-06 -4.14980741e-06 1.55933094e-07 2.848131544e-06 -1.150151547e-07 7.734584869e-06 )
( 6.32538331e-06 -3.371445473e-06 1.299309673e-07 2.032902103e-06 -8.04778324e-08 5.6586764e-06 )
( 6.368368304e-06 -3.396446573e-06 1.357278592e-07 2.043163477e-06 -8.138871976e-08 5.657045222e-06 )
( 6.507536455e-06 -3.463585927e-06 1.447788662e-07 2.083666459e-06 -8.381428529e-08 5.721855814e-06 )
( 6.577190561e-06 -3.497558737e-06 1.500898179e-07 2.097890274e-06 -8.270959739e-08 5.715950465e-06 )
( 6.539682545e-06 -3.479309271e-06 1.488405417e-07 2.089620011e-06 -8.360068193e-08 5.715633506e-06 )
( 5.258693363e-06 -2.802673407e-06 1.061201687e-07 1.613770905e-06 -5.708407613e-08 4.498218004e-06 )
( 5.291416983e-06 -2.810807246e-06 1.025093113e-07 1.608583261e-06 -5.400139358e-08 4.485591489e-06 )
( 5.269284884e-06 -2.804478981e-06 1.044274569e-07 1.610246841e-06 -5.570550243e-08 4.489285857e-06 )
( 5.39069606e-06 -2.846933512e-06 1.018210156e-07 1.620849616e-06 -5.168789841e-08 4.530649676e-06 )
( 1.024854282e-05 -3.408559451e-06 8.400014906e-08 6.452422895e-06 -7.225865062e-08 1.244506529e-05 )
( 9.573426723e-06 -3.522628049e-06 8.204308699e-08 5.598986263e-06 -6.824272702e-08 1.187260841e-05 )
( 9.680886251e-06 -3.729434184e-06 7.389993328e-08 5.37257165e-06 -7.808836244e-08 1.156084363e-05 )
( 9.239137398e-06 -3.695276291e-06 8.460145295e-08 4.998377335e-06 -6.96077862e-08 1.138314474e-05 )
( 9.734410924e-06 -3.373144636e-06 8.961367826e-08 5.970244274e-06 -6.844459222e-08 1.224796051e-05 )
( 9.871169823e-06 -3.12759812e-06 1.281168807e-07 6.309200671e-06 -7.104989663e-08 1.275385148e-05 )
( 3.500076127e-05 -7.750886653e-06 5.965034688e-07 1.175432135e-05 -2.431936252e-07 1.465692912e-05 )
( 5.616124326e-05 -1.291479475e-05 6.118868896e-07 1.278380114e-05 -2.124991454e-07 1.581588003e-05 )
( 5.717224121e-05 -1.337411959e-05 3.154879096e-07 1.145304759e-05 -7.73645823e-08 1.791087743e-05 )
( 4.579639062e-05 -1.106770833e-05 2.143186322e-07 1.029819123e-05 3.248314329e-08 1.929022619e-05 )
( 2.399729783e-05 -5.337692528e-06 5.383146799e-07 1.077590696e-05 -2.191265338e-07 1.462356431e-05 )
( 1.330533087e-05 -3.405250482e-06 2.665009049e-07 8.428157344e-06 -1.13324667e-07 1.386157965e-05 )
( 1.580414391e-05 -3.670040087e-06 3.894444092e-07 9.014697753e-06 -1.5407295e-07 1.424338916e-05 )
( 2.884815149e-05 -7.100123185e-06 2.946910342e-07 8.707856978e-06 1.633857636e-07 1.908236845e-05 )
( 1.955120388e-05 -4.914274996e-06 2.867655553e-07 8.005880773e-06 2.413373181e-07 1.753864854e-05 )
( 9.079032679e-06 -4.06377967e-06 1.133713567e-07 4.324725069e-06 -9.613395946e-08 1.056461952e-05 )
( 9.1902657e-06 -4.170563443e-06 1.20202273e-07 4.243818694e-06 -1.065129709e-07 1.038752271e-05 )
( 9.150574442e-06 -3.880527402e-06 9.647006038e-08 4.585798251e-06 -8.261684314e-08 1.099424117e-05 )
( 9.217040315e-06 -4.268425982e-06 1.297891288e-07 4.175408776e-06 -1.20252551e-07 1.013654037e-05 )
( 1.239964786e-05 -3.365030125e-06 1.458111853e-07 7.731849109e-06 2.952294551e-07 1.444861118e-05 )
( 9.120120922e-06 -4.366851499e-06 1.431717038e-07 3.929959803e-06 -1.278094572e-07 9.67133019e-06 )
( 8.66631035e-06 -4.317425919e-06 1.462579746e-07 3.492791166e-06 -1.140116197e-07 8.983571206e-06 )
( 8.585406249e-06 -4.36763321e-06 1.60183717e-07 3.316996754e-06 -1.201417348e-07 8.631937817e-06 )
( 8.568714293e-06 -4.349133633e-06 1.54134284e-07 3.328169441e-06 -1.139912413e-07 8.705500477e-06 )
( 6.119461432e-06 -3.262740847e-06 1.020512386e-07 1.968094011e-06 -7.029616711e-08 5.602543752e-06 )
( 6.156262316e-06 -3.283692877e-06 1.097875568e-07 1.97900863e-06 -7.304122818e-08 5.596200026e-06 )
( 4.969368092e-06 -2.657793402e-06 8.091972603e-08 1.538311267e-06 -5.016908133e-08 4.403026651e-06 )
( 7.078680937e-06 -3.753363671e-06 1.252155784e-07 2.38989287e-06 -9.161113468e-08 6.701029179e-06 )
( 7.009351066e-06 -3.714251534e-06 1.170357464e-07 2.371666369e-06 -8.51321218e-08 6.698770449e-06 )
( 6.077874332e-06 -3.24204666e-06 9.430291925e-08 1.957471795e-06 -6.654779838e-08 5.610630978e-06 )
( 7.814102901e-06 -4.077544872e-06 1.422396423e-07 2.788606025e-06 -1.026160419e-07 7.683553122e-06 )
( 7.767970601e-06 -4.046456525e-06 1.328399435e-07 2.78987045e-06 -9.417207991e-08 7.702226867e-06 )
( 6.951338946e-06 -3.684431249e-06 1.094867912e-07 2.357728363e-06 -7.762801602e-08 6.706515251e-06 )
( 4.99235739e-06 -2.670547474e-06 8.698864207e-08 1.544207976e-06 -5.23808481e-08 4.399587397e-06 )
( 5.028811756e-06 -2.691560439e-06 9.229135145e-08 1.555954213e-06 -5.423866867e-08 4.404015272e-06 )
( 5.135835181e-06 -2.743471669e-06 9.941408763e-08 1.58505793e-06 -5.680192317e-08 4.461673143e-06 )
( 5.168120879e-06 -2.760037205e-06 1.045203035e-07 1.591185878e-06 -5.708392337e-08 4.447872016e-06 )
( 5.152527592e-06 -2.75124421e-06 1.032997119e-07 1.587469797e-06 -5.742614206e-08 4.45385831e-06 )
( 3.816170192e-06 -2.038768798e-06 7.032040372e-08 1.141170856e-06 -3.764596457e-08 3.211462854e-06 )
( 3.825596195e-06 -2.038035973e-06 6.967556487e-08 1.135569732e-06 -3.706243845e-08 3.198970717e-06 )
( 3.81717382e-06 -2.036186061e-06 7.001928992e-08 1.136903279e-06 -3.742771426e-08 3.201967274e-06 )
( 3.890126663e-06 -2.060121687e-06 6.98681788e-08 1.141566599e-06 -3.628018774e-08 3.237189958e-06 )
( 8.844933291e-06 -3.670587148e-06 9.394817369e-08 4.625829661e-06 -6.366720839e-08 1.117375996e-05 )
( 8.878176232e-06 -3.482111197e-06 9.006215862e-08 4.919767434e-06 -6.023699228e-08 1.157209772e-05 )
( 8.80389689e-06 -3.783656894e-06 9.923867594e-08 4.395053111e-06 -7.307478e-08 1.094807521e-05 )
( 9.014347597e-06 -3.250049531e-06 9.624562836e-08 5.379061804e-06 -6.210239434e-08 1.21403973e-05 )
( 8.512154636e-06 -3.226673471e-06 1.016728817e-07 4.939785413e-06 -5.534561964e-08 1.187518956e-05 )
( 8.749363587e-06 -3.07108121e-06 1.197227419e-07 5.288560715e-06 -5.806728609e-08 1.22629408e-05 )
( 9.531444448e-06 -2.962862482e-06 1.408052128e-07 6.109878086e-06 -6.852539514e-08 1.286815859e-05 )
( 3.3551456e-05 -6.75820047e-06 5.428218515e-07 9.678581591e-06 -2.338931182e-07 1.347836951e-05 )
( 5.428735312e-05 -1.138714833e-05 5.689914246e-07 1.086371321e-05 -2.083008326e-07 1.449235151e-05 )
( 5.562781735e-05 -1.202506246e-05 3.141505545e-07 9.906501873e-06 -8.088294834e-08 1.687012082e-05 )
( 4.396543954e-05 -9.936858987e-06 1.995015992e-07 9.036351912e-06 3.891267752e-08 1.860338125e-05 )
( 2.718334326e-05 -6.33816353e-06 2.759927611e-07 7.857564924e-06 1.887438259e-07 1.873262045e-05 )
( 2.18795667e-05 -4.671473562e-06 4.691227673e-07 9.502200555e-06 -2.063273001e-07 1.410777986e-05 )
( 1.064082062e-05 -2.938054422e-06 2.053336061e-07 6.860171197e-06 -8.910900107e-08 1.333621913e-05 )
( 1.268720916e-05 -3.053501359e-06 2.915181199e-07 7.338623163e-06 -1.261563085e-07 1.371457438e-05 )
( 1.837887612e-05 -4.423200608e-06 2.785859579e-07 7.437749446e-06 2.70805117e-07 1.733591853e-05 )
( 1.182679352e-05 -3.132426627e-06 1.358799722e-07 7.454790193e-06 3.076404482e-07 1.433955913e-05 )
( 8.73530189e-06 -3.969466889e-06 1.129116853e-07 4.03201193e-06 -8.241806881e-08 1.049439197e-05 )
( 8.813488421e-06 -4.108672329e-06 1.180959686e-07 3.9509614e-06 -9.061136552e-08 1.019350566e-05 )
( 8.734557923e-06 -4.173025445e-06 1.203082149e-07 3.734289976e-06 -9.839989445e-08 9.769390999e-06 )
( 8.45458726e-06 -4.169089152e-06 1.18944584e-07 3.445046559e-06 -9.497112785e-08 9.210239114e-06 )
( 9.154867257e-06 -2.724615115e-06 1.293526353e-08 7.87145018e-06 2.973892208e-07 1.213833093e-05 )
( 8.485440048e-06 -4.219936272e-06 1.24432205e-07 3.395933618e-06 -9.892741559e-08 9.055695045e-06 )
( 8.473029993e-06 -4.244524916e-06 1.318259422e-07 3.361047675e-06 -1.015276183e-07 8.950968549e-06 )
( 7.685915079e-06 -3.989793186e-06 1.148381017e-07 2.795331284e-06 -7.596084828e-08 7.909778105e-06 )
( 7.74873115e-06 -4.041072316e-06 1.265815115e-07 2.796221906e-06 -8.665202955e-08 7.775745871e-06 )
( 7.746918527e-06 -4.027254818e-06 1.199485382e-07 2.816531378e-06 -8.094064441e-08 7.855296644e-06 )
( 4.84982138e-06 -2.595877504e-06 6.669057484e-08 1.502704208e-06 -4.463051084e-08 4.353817985e-06 )
( 4.874907972e-06 -2.610433285e-06 7.267340862e-08 1.510959351e-06 -4.693474409e-08 4.349932624e-06 )
( 3.630745596e-06 -1.94523227e-06 5.125274072e-08 1.092683306e-06 -3.073065713e-08 3.13927967e-06 )
( 5.939683433e-06 -3.176767905e-06 8.445588406e-08 1.918161388e-06 -5.985880591e-08 5.548244189e-06 )
( 5.879719083e-06 -3.145878281e-06 7.81857068e-08 1.903053771e-06 -5.433794215e-08 5.542367944e-06 )
( 4.822612482e-06 -2.583358082e-06 6.080914972e-08 1.497312041e-06 -4.15921626e-08 4.361284027e-06 )
( 6.818007932e-06 -3.620503094e-06 1.003561536e-07 2.316805876e-06 -6.858115142e-08 6.655468496e-06 )
( 6.784865491e-06 -3.601712478e-06 9.427017744e-08 2.312145625e-06 -6.198364844e-08 6.671760275e-06 )
( 5.833613159e-06 -3.1236209e-06 7.263487589e-08 1.894145271e-06 -4.870370773e-08 5.544631222e-06 )
( 3.642326192e-06 -1.950779051e-06 5.532692526e-08 1.09461314e-06 -3.230628565e-08 3.134000053e-06 )
( 3.664255928e-06 -1.964400099e-06 5.917147305e-08 1.102901365e-06 -3.402105264e-08 3.136172836e-06 )
( 3.7393404e-06 -2.001157554e-06 6.42746798e-08 1.122578396e-06 -3.597683218e-08 3.182328101e-06 )
( 3.752762041e-06 -2.008615638e-06 6.847891854e-08 1.125671133e-06 -3.706122698e-08 3.168675448e-06 )
( 3.745771437e-06 -2.003222562e-06 6.721224821e-08 1.122288154e-06 -3.687070205e-08 3.173172445e-06 )
( 2.470947038e-06 -1.32182754e-06 4.259838349e-08 7.25595271e-07 -2.274282096e-08 2.03118293e-06 )
( 2.467067816e-06 -1.316962766e-06 4.278327381e-08 7.206467671e-07 -2.28107524e-08 2.019979092e-06 )
( 2.466958222e-06 -1.317569286e-06 4.26422524e-08 7.216435733e-07 -2.274064315e-08 2.022488843e-06 )
( 2.50313542e-06 -1.328305643e-06 4.345498184e-08 7.22788343e-07 -2.282344091e-08 2.04903813e-06 )
( 8.149400855e-06 -3.644968729e-06 1.029425292e-07 3.966537406e-06 -5.364177369e-08 1.080364837e-05 )
( 8.29477267e-06 -3.764327403e-06 1.058498356e-07 3.924705652e-06 -6.006922604e-08 1.06315174e-05 )
( 8.380658073e-06 -3.421098882e-06 9.373626852e-08 4.525702934e-06 -5.470352704e-08 1.146538762e-05 )
( 8.270073522e-06 -3.878736152e-06 1.088269315e-07 3.743604566e-06 -7.111175648e-08 1.015633552e-05 )
( 7.971537343e-06 -3.224028887e-06 1.066257695e-07 4.347191862e-06 -4.821873034e-08 1.15047751e-05 )
( 7.898761396e-06 -3.346177436e-06 1.00046897e-07 4.136473308e-06 -4.773559681e-08 1.127878386e-05 )
( 8.025221177e-06 -3.03129832e-06 1.154333091e-07 4.589101991e-06 -5.364260147e-08 1.188426722e-05 )