/*--------------------------------*- C++ -*----------------------------------*\
  =========                 |
  \\      /  F ield         | OpenFOAM: The Open Source CFD Toolbox
   \\    /   O peration     | Website:  https://openfoam.org
    \\  /    A nd           | Version:  8
     \\/     M anipulation  |
\*---------------------------------------------------------------------------*/






FoamFile
{
    version     2.0;
    format      ascii;
    class       volVectorField;
    location    "0";
    object      UDDES;
}
// * * * * * * * * * * * * * * * * * * * * * * * * * * * * * * * * * * * * * //

dimensions      [0 1 -1 0 0 0 0];


internalField   nonuniform List<vector> 
26254
(
( -0.002745959908 0.00190878252 3.438244312e-05 )
( -0.002573177684 0.00187521358 3.02412609e-05 )
( -0.002667140914 0.001823121449 2.799929644e-05 )
( -0.001870542765 0.001709713484 3.62438368e-05 )
( -0.002528119367 0.001830020221 1.750178672e-05 )
( -0.002596159 0.00181028957 2.113436676e-05 )
( -0.002497800859 0.00167227909 2.091938586e-05 )
( -0.002467165235 0.001628164551 2.392500937e-05 )
( -0.002136182506 0.001712436555 1.012701887e-05 )
( -0.0003583364596 0.001310766442 5.270624024e-05 )
( -0.002502367133 0.001778566511 9.667971426e-06 )
( -0.002545173746 0.001727429102 1.295864786e-05 )
( -0.002276099054 0.001518068602 1.43561283e-05 )
( -0.002416251926 0.001598987961 2.119119745e-05 )
( -0.002225805074 0.001471507014 1.882652759e-05 )
( -0.002096327255 0.001367943245 2.08364163e-05 )
( -0.002196516609 0.001442385372 2.106795182e-05 )
( -0.002254985273 0.001468256116 2.121770376e-05 )
( -0.0007990776794 0.001359217102 2.489234976e-05 )
( -0.002349145245 0.001715121907 -4.55893769e-06 )
( -0.002018017229 0.001634543063 -5.222664186e-06 )
( 0.002398889745 0.000701188168 6.235686305e-05 )
( -0.002509665443 0.001718371641 -6.837353794e-08 )
( -0.002349091228 0.001572865527 5.621841865e-06 )
( -0.002216928406 0.001476249658 9.891968148e-06 )
( -0.001965937205 0.00130399398 1.265349329e-05 )
( -0.001960725291 0.001296233386 1.490329032e-05 )
( -0.00209457404 0.00138466456 1.527716813e-05 )
( -0.001899484545 0.001241826219 1.810919821e-05 )
( -0.001840026001 0.001194841112 2.006055911e-05 )
( -0.001753548626 0.001126995194 2.009707896e-05 )
( -0.001929834951 0.001241091057 2.054012839e-05 )
( -0.001258718548 0.001409740071 4.07060179e-06 )
( 0.001779952203 0.0007842245977 4.480221105e-05 )
( -0.002385271946 0.00166605995 -1.217581303e-05 )
( -0.002006326569 0.001593179652 -1.20288496e-05 )
( 0.006767503452 -2.101587597e-07 3.500286402e-05 )
( -0.002351815812 0.001571331872 -3.886738796e-06 )
( -0.001996001927 0.001323151984 8.184297258e-06 )
( -0.002096844139 0.001391141908 4.729428838e-06 )
( -0.002313510282 0.001538362936 6.077008265e-07 )
( -0.001647966914 0.001088433899 1.481675736e-05 )
( -0.001691646175 0.001113482867 1.143927966e-05 )
( -0.001695685438 0.001111456542 1.566453284e-05 )
( -0.001792061841 0.001171253738 1.68337283e-05 )
( -0.001574296039 0.001017565024 1.87347523e-05 )
( -0.001568721374 0.001006414182 1.980739216e-05 )
( -0.001472021686 0.0009375505615 1.927471567e-05 )
( -0.001607401879 0.001017112401 1.951506601e-05 )
( -0.001520426478 0.001379852532 -3.038842351e-06 )
( 0.001190756448 0.0008551323554 3.66117456e-05 )
( 0.006158502772 7.34001369e-05 2.798267815e-05 )
( -0.002324038884 0.00156952627 -1.61570224e-05 )
( -0.002135108225 0.001562703867 -2.12069499e-05 )
( 0.01173827052 -0.0005311258137 -1.395658364e-05 )
( -0.002200161107 0.001437880215 -6.451366062e-06 )
( -0.002140649362 0.00141643174 -1.84812734e-07 )
( -0.001767521608 0.001165883616 9.163415598e-06 )
( -0.001838468015 0.001213396667 5.795724974e-06 )
( -0.001427085488 0.0009370715707 1.696822437e-05 )
( -0.001322263852 0.0008679668535 1.605142461e-05 )
( -0.001426480012 0.0009327923181 1.389715635e-05 )
( -0.001391817234 0.0009088333463 1.845763109e-05 )
( -0.001483015716 0.0009625089588 1.8130444e-05 )
( -0.001362344716 0.0008750216803 1.929293285e-05 )
( -0.001270944485 0.0008074921207 1.870367487e-05 )
( -0.001273735659 0.000801610935 1.7878996e-05 )
( -0.001251262729 0.0007920089411 1.81595442e-05 )
( -0.001354037318 0.0008530244813 1.733912541e-05 )
( -0.001858330448 0.001390640158 -6.065902198e-06 )
( 0.0006598289474 0.0008988042828 3.596312672e-05 )
( -0.0021945138 0.001521683414 -2.340068932e-05 )
( -0.00126407831 0.001249197405 1.753072502e-05 )
( 0.005550279282 0.0001442834764 2.567266347e-05 )
( 0.0118046701 -0.0005221290048 -2.313128061e-05 )
( -0.002239246387 0.001446387032 -1.324857385e-05 )
( 0.0166896861 -0.000793341489 -1.334954413e-05 )
( -0.001981875626 0.001294002868 4.340411124e-07 )
( -0.001822993741 0.001179960323 4.342052762e-06 )
( -0.002182334661 0.001404660754 -8.422988685e-06 )
( -0.001940014656 0.001245264895 -1.393680122e-07 )
( -0.001448330469 0.0009502851171 1.30556773e-05 )
( -0.00165500422 0.001081040711 8.009736121e-06 )
( -0.001174171572 0.0007754870458 1.808285197e-05 )
( -0.001132900943 0.0007412571576 1.880719174e-05 )
( -0.001120143104 0.0007327120984 1.858531141e-05 )
( -0.00120353722 0.0007889738772 1.756997517e-05 )
( -0.001127805444 0.000737383496 1.934237662e-05 )
( -0.001150354976 0.0007484562229 1.956490814e-05 )
( -0.001193206408 0.0007731845253 1.91395975e-05 )
( -0.001207187423 0.0007750506629 1.870687083e-05 )
( -0.001189999399 0.0007693740772 1.899444214e-05 )
( -0.0009637324256 0.0006066591013 1.741273081e-05 )
( -0.0009828077164 0.0006136221346 1.558836448e-05 )
( -0.0009657550836 0.0006051188102 1.669290214e-05 )
( -0.001042973716 0.0006457063719 1.452105789e-05 )
( -0.002183946315 0.00142745825 -1.492823139e-05 )
( -0.001988793258 0.001344491262 6.145634188e-07 )
( 0.004948238377 0.0002091374481 2.617025712e-05 )
( 5.223810149e-05 0.0009424788295 4.278585766e-05 )
( -0.001297947369 0.001205510693 2.621122803e-05 )
( 0.01199648343 -0.0004831380793 -1.64828507e-05 )
( 0.01722183824 -0.0007701775176 -6.712652066e-06 )
( -0.002072782256 0.00129024894 -1.630162501e-06 )
( -0.00198975252 0.001267776475 7.86117198e-08 )
( 0.02218681201 -0.0007893770235 8.150233771e-05 )
( -0.001570263994 0.001008903026 1.134990998e-05 )
( -0.001469630166 0.0009515022393 1.246524698e-05 )
( -0.001727172872 0.001097157015 8.553482985e-06 )
( -0.001281754696 0.0008357284241 1.630749648e-05 )
( -0.0008983239532 0.0005941098789 2.045744259e-05 )
( -0.0009875238175 0.0006515555433 1.928840902e-05 )
( -0.0007853858988 0.0005104981246 2.046166082e-05 )
( -0.0009585093358 0.0006303649861 2.075765406e-05 )
( -0.0008289782563 0.0005440558307 2.176328235e-05 )
( -0.001003182027 0.0006539465394 2.063988723e-05 )
( -0.0008099984843 0.0005265020882 2.034546924e-05 )
( -0.0008273024578 0.0005368661368 1.998632069e-05 )
( -0.0008880434907 0.0005708627286 1.944129326e-05 )
( -0.0009113796405 0.0005824243999 1.798179437e-05 )
( -0.0008925207076 0.00057358091 1.858834366e-05 )
( -0.000588082301 0.0003666422854 1.509253161e-05 )
( -0.0006163585349 0.0003804329317 1.22842639e-05 )
( -0.000598693674 0.0003731278994 1.377974786e-05 )
( -0.0006524561904 0.0003975167929 1.03554612e-05 )
( -0.00214994885 0.001312604989 -1.295207539e-06 )
( -0.002023812849 0.001254821429 1.331543808e-05 )
( 0.004380815662 0.0002609990479 2.924304863e-05 )
( 0.01163505949 -0.0004328818759 -1.522278762e-05 )
( -0.0001914509776 0.0008932405035 5.265521395e-05 )
( -0.001452110824 0.001162937609 3.524601561e-05 )
( 0.0182606224 -0.0007490378339 1.129986777e-05 )
( 0.02231020667 -0.0007528573624 8.318541222e-05 )
( -0.001837427961 0.001139143482 9.781870176e-06 )
( -0.001851071254 0.00112162286 1.015622092e-05 )
( -0.00209553889 0.001273997827 1.431884357e-06 )
( -0.001679681242 0.001032425556 1.628082646e-05 )
( 0.0261122603 -0.0006198709598 0.0001834160357 )
( -0.001252858783 0.0008073052159 1.893693479e-05 )
( -0.001364398981 0.0008707749657 1.922021693e-05 )
( -0.001142756781 0.0007456946187 1.918722046e-05 )
( -0.001548382686 0.0009670133004 1.865365994e-05 )
( -0.0006219618372 0.0004116084892 2.233306441e-05 )
( -0.0006882747402 0.0004527033598 2.143311394e-05 )
( -0.0004452057765 0.0002914352517 2.126132313e-05 )
( -0.0007649911568 0.0005050652544 2.273443715e-05 )
( -0.0007613742491 0.0005029497552 2.309275987e-05 )
( -0.0005413304316 0.0003575920127 2.389089423e-05 )
( -0.0008527906029 0.000563630485 2.371283517e-05 )
( -0.0007475215243 0.0004912686418 2.397767093e-05 )
( -0.0004586485738 0.0003017453128 2.038151069e-05 )
( -0.0004792283871 0.0003122465278 1.95029188e-05 )
( -0.0005149398348 0.0003308805171 1.836555566e-05 )
( -0.0005516120582 0.0003501907922 1.614097891e-05 )
( -0.0005313144648 0.0003409737546 1.709339995e-05 )
( -0.0003643249802 0.0002275580919 1.24401322e-05 )
( -0.0003935324494 0.0002423418482 9.423777556e-06 )
( -0.0003797837417 0.0002339342464 1.106791478e-05 )
( -0.0004233810469 0.0002558951091 7.674349035e-06 )
( -0.001982002985 0.001143154223 1.688499833e-05 )
( -0.001892147586 0.001129643526 1.223760046e-05 )
( -0.001980130095 0.001151063712 2.585204493e-05 )
( 0.003888247535 0.0002947158646 3.260578887e-05 )
( 0.01129419543 -0.0003820467391 -1.083902134e-05 )
( 0.01884614863 -0.0007135593914 2.387968561e-05 )
( 0.000474469125 0.0007148516015 5.823974061e-05 )
( -0.001587698818 0.001139148953 3.893149915e-05 )
( -0.0008751643472 0.0009489149088 5.520063496e-05 )
( 0.02302546427 -0.0007187086158 9.515757847e-05 )
( 0.02626125887 -0.0005778367631 0.0001866729872 )
( -0.001511674374 0.0009151132545 2.139842763e-05 )
( -0.001651615719 0.0009801757988 2.141657751e-05 )
( -0.001449574716 0.0008927498711 2.256653897e-05 )
( 0.02764455788 -0.0004940315848 0.0002320046333 )
( -0.001090771751 0.0006995509029 2.428953849e-05 )
( -0.0009061889141 0.0005963347503 2.46531763e-05 )
( -0.001270057634 0.0007975975168 2.420962301e-05 )
( -0.0003531035909 0.0002375160111 2.304507871e-05 )
( -0.0003891875094 0.0002603328612 2.197228241e-05 )
( -0.0002404036204 0.0001625619916 1.98490161e-05 )
( -0.000499173475 0.0003332613851 2.4826546e-05 )
( -0.0005209710216 0.0003485043708 2.509524711e-05 )
( -0.0003353139327 0.000227697019 2.39205292e-05 )
( -0.0006580019835 0.0004392350384 2.597816274e-05 )
( -0.0006439684657 0.0004331712262 2.685015352e-05 )
( -0.0004673852236 0.0003120462061 2.66186762e-05 )
( -0.0002584683243 0.0001719459542 1.879024057e-05 )
( -0.0002733388392 0.0001823251223 1.769809933e-05 )
( -0.0003032035311 0.0001974620682 1.635979606e-05 )
( -0.0003363736323 0.0002145888284 1.373500345e-05 )
( -0.0003201148938 0.0002046289883 1.484997301e-05 )
( -0.0002339288621 0.0001459675987 1.007460833e-05 )
( -0.0002614093828 0.0001602584671 7.188233667e-06 )
( -0.0002480017138 0.0001520081423 8.679188795e-06 )
( -0.0002848913427 0.0001703062298 5.546476586e-06 )
( -0.002028095303 0.001140382374 2.201496318e-05 )
( -0.001793122967 0.001000918332 2.664175008e-05 )
( -0.001746277325 0.0009996083099 2.547499207e-05 )
( -0.001600385644 0.0009048547945 3.045694757e-05 )
( -0.001898644259 0.001049478306 2.808847057e-05 )
( -0.001959298505 0.001058274298 3.567872409e-05 )
( 0.003189189127 0.0003364557051 3.955123248e-05 )
( 0.01097864471 -0.0003339007962 -3.889135769e-06 )
( 0.01886755228 -0.0006662515807 2.8254668e-05 )
( 0.02321765199 -0.0006709565641 9.894609684e-05 )
( 0.0004819062597 0.0006769211031 5.630404485e-05 )
( -0.001705185743 0.001080348971 4.437300231e-05 )
( -0.001171974232 0.0009489986696 5.516259262e-05 )
( 0.0264103692 -0.0005333153531 0.0001907643455 )
( 0.02775255777 -0.0004540158552 0.0002357746416 )
( -0.001281547477 0.000762414129 3.1308693e-05 )
( -0.00123164861 0.000744815392 3.012209709e-05 )
( -0.001460295636 0.0008400313091 3.148099131e-05 )
( -0.001154393191 0.0007202501874 2.821359521e-05 )
( 0.02849005722 -0.0003883053432 0.0002381819068 )
( -0.0009995333385 0.0006417273544 2.723027683e-05 )
( -0.0007523626555 0.0004932085867 2.878188207e-05 )
( -0.0006542841438 0.0004418393073 2.803360803e-05 )
( -0.0006616051542 0.0004419271427 2.877214501e-05 )
( -0.0001993615297 0.0001389501849 2.136996409e-05 )
( -0.0002135394607 0.0001486725232 2.069509355e-05 )
( -0.0001292473171 9.11817333e-05 1.719931424e-05 )
( -0.0003018199932 0.0002092545328 2.484563993e-05 )
( -0.0002842920949 0.0001969896257 2.56735093e-05 )
( -0.0001833083952 0.0001314402325 2.223991032e-05 )
( -0.0004317454004 0.000293496123 2.796885747e-05 )
( -0.0004155350616 0.0002850270248 2.903562745e-05 )
( -0.0002700249024 0.0001887054677 2.682603917e-05 )
( -0.0001441234199 9.883147868e-05 1.612482447e-05 )
( -0.0001588660671 0.0001089341749 1.507261641e-05 )
( -0.0001826766238 0.0001206623419 1.388093187e-05 )
( -0.0002114425151 0.0001357252768 1.125536801e-05 )
( -0.00019823201 0.000127493171 1.239121593e-05 )
( -0.0001431558048 8.900270768e-05 7.630165783e-06 )
( -0.0001658827532 0.0001009880943 5.139964742e-06 )
( -0.0001547146239 9.422953735e-05 6.425077572e-06 )
( -0.0001832722919 0.0001079565263 3.843942068e-06 )
( -0.001452537719 0.0008057751111 3.332289998e-05 )
( -0.001600699383 0.0008693183772 3.466497947e-05 )
( -0.00137508451 0.0007769653457 3.490091694e-05 )
( -0.001800967497 0.0009579958278 3.753778583e-05 )
( -0.001648280071 0.0008622762398 4.132315007e-05 )
( -0.001761745778 0.0009081238532 4.341868771e-05 )
( -0.001957295695 0.001025151461 4.270735008e-05 )
( 0.003202049527 0.0002879931708 3.836550241e-05 )
( 0.01072266977 -0.0002941476414 3.982140697e-06 )
( 0.01893887669 -0.0006152986316 3.402848233e-05 )
( 0.02343083918 -0.0006193949375 0.0001028600382 )
( 0.02658345923 -0.000485900382 0.0001962964889 )
( 0.0002543461742 0.0006651939475 5.752908328e-05 )
( -0.001909994637 0.001038011629 4.606000584e-05 )
( -0.001464391244 0.0009198252228 5.654021152e-05 )
( 0.02785955742 -0.0004125159176 0.0002401165257 )
( 0.02853911743 -0.0003540872713 0.0002403650142 )
( -0.001189001603 0.000687069376 3.449316864e-05 )
( -0.001087061712 0.0006523770862 3.291973917e-05 )
( -0.0009481989546 0.0005849512527 3.151530473e-05 )
( -0.0007534518372 0.0004813268315 3.167219256e-05 )
( 0.02878734469 -0.0003440842265 0.0002124356688 )
( -0.0007168973098 0.0004655441153 3.09067218e-05 )
( -0.0006989184185 0.0004551813181 3.03993038e-05 )
( -0.0004096798948 0.0002747914114 3.155618833e-05 )
( -0.0004152334295 0.0002847755968 3.005324106e-05 )
( -0.0004137582146 0.0002835805644 3.101591574e-05 )
( -9.457630222e-05 7.148414443e-05 1.850897752e-05 )
( -0.0001075858672 8.025168063e-05 1.78983355e-05 )
( -5.739807602e-05 4.403948333e-05 1.392181639e-05 )
( -0.0001561118115 0.0001167950541 2.304171721e-05 )
( -0.0001410389523 0.0001055380999 2.386891902e-05 )
( -7.979638031e-05 6.450465298e-05 1.92633197e-05 )
( -0.000240753754 0.0001730061776 2.800348011e-05 )
( -0.0002272262645 0.0001631415944 2.895498619e-05 )
( -0.0001262918813 9.772169142e-05 2.497097375e-05 )
( -6.995114381e-05 5.06479264e-05 1.300629265e-05 )
( -8.260279719e-05 5.910690743e-05 1.200916722e-05 )
( -0.000101100035 6.797970855e-05 1.095108928e-05 )
( -0.0001257618569 8.120836719e-05 8.655360034e-06 )
( -0.0001141323519 7.401187759e-05 9.662717275e-06 )
( -8.213481487e-05 5.063878052e-05 5.363816854e-06 )
( -9.96145609e-05 5.995976244e-05 3.450011945e-06 )
( -9.082659381e-05 5.476218575e-05 4.43293311e-06 )
( -0.0001116888961 6.4568987e-05 2.369748472e-06 )
( -0.001223090803 0.0006602624198 3.928643855e-05 )
( -0.001171663636 0.0006478135474 3.800200648e-05 )
( -0.001503996667 0.0007990451413 4.066408292e-05 )
( -0.001005013357 0.0005825583357 3.52641182e-05 )
( -0.001454235055 0.000738110044 4.561697278e-05 )
( -0.001378154615 0.0007097086636 4.454818554e-05 )
( -0.001592687797 0.0007942671655 4.775554044e-05 )
( -0.001785597182 0.0009097437724 4.718764831e-05 )
( -6.749434397e-05 0.0006643034867 5.810458242e-05 )
( 0.002178524854 0.000351240189 4.221480776e-05 )
( 0.01057968475 -0.0002675896394 1.245246585e-05 )
( 0.005112629384 5.757263352e-05 2.527532706e-05 )
( 0.01905140281 -0.0005633321125 4.110375812e-05 )
( 0.02367792279 -0.000563661044 0.0001079372014 )
( 0.0267316252 -0.0004379585152 0.0002021943947 )
( 0.02796557732 -0.0003706098651 0.0002448821033 )
( -0.001910553547 0.00100320566 5.212795804e-05 )
( -0.00183856464 0.0009329847526 5.109616177e-05 )
( -0.001517094439 0.0008533236105 5.93986988e-05 )
( -0.001830387046 0.0009238141356 5.535216769e-05 )
( 0.02858417481 -0.0003187367984 0.0002421232639 )
( 0.02880731039 -0.0003159499611 0.0002125117899 )
( -0.0009646490798 0.0005730190314 3.364138684e-05 )
( -0.0007689708145 0.0004742207529 3.302266123e-05 )
( -0.0007354543777 0.0004632738419 3.263389954e-05 )
( -0.000714583497 0.0004499476927 3.296341674e-05 )
( -0.0004469585547 0.0002896031656 3.179219129e-05 )
( 0.02888517454 -0.0003142340865 0.0001735278784 )
( -0.0003577780444 0.0002415508206 3.191868018e-05 )
( -0.0004109527508 0.0002782211232 3.148535325e-05 )
( -0.0002038930106 0.0001493723539 3.069915692e-05 )
( -0.000222295188 0.000161349526 2.997702722e-05 )
( -0.0002170880034 0.0001580919779 3.059176743e-05 )
( -2.901553853e-05 2.827180288e-05 1.497690755e-05 )
( -4.056784383e-05 3.577765528e-05 1.446360511e-05 )
( -1.611713196e-05 1.590179636e-05 1.045531553e-05 )
( -5.827678615e-05 5.326085375e-05 1.988458826e-05 )
( -4.515574255e-05 4.348757284e-05 2.063724605e-05 )
( -1.645287739e-05 2.212340769e-05 1.55703874e-05 )
( -0.0001020436976 8.413950127e-05 2.586158371e-05 )
( -9.107062215e-05 7.536238263e-05 2.665661304e-05 )
( -3.183045919e-05 3.615049354e-05 2.156620576e-05 )
( -2.578552812e-05 2.109380875e-05 9.711984603e-06 )
( -3.614618981e-05 2.775075882e-05 8.897428415e-06 )
( -4.978954166e-05 3.424511669e-05 7.961856682e-06 )
( -6.947317161e-05 4.495861867e-05 6.108833077e-06 )
( -5.987723489e-05 3.911947715e-05 6.98652866e-06 )
( -4.292103768e-05 2.601309825e-05 3.411470288e-06 )
( -5.504528963e-05 3.253923569e-05 2.098838422e-06 )
( -4.869721306e-05 2.885915819e-05 2.841906053e-06 )
( -6.263931573e-05 3.541350816e-05 1.524029358e-06 )
( -0.001007576124 0.0005547119072 3.803658183e-05 )
( -0.00116723543 0.0006146280793 4.209485269e-05 )
( -0.0008352005389 0.0004678257974 3.580088378e-05 )
( -0.0007323718746 0.0004344957997 3.382258728e-05 )
( -0.0007575363852 0.0004415075236 3.460824519e-05 )
( -0.001248395769 0.0006136669545 4.935027027e-05 )
( -0.001192264259 0.0005974946544 4.723671009e-05 )
( -0.00106153416 0.0005549787311 4.24558275e-05 )
( -0.001444404363 0.0006930467207 5.292589049e-05 )
( -0.001638345304 0.0008010708843 5.308728578e-05 )
( -0.0006515805144 0.000697463518 5.843499457e-05 )
( 0.001670277677 0.0003626600956 4.522194649e-05 )
( 0.01952903345 -0.0004944773973 5.977795809e-05 )
( 0.01017592195 -0.0002582509769 1.516594057e-05 )
( 0.00560864713 -9.91755951e-06 2.211626634e-05 )
( 0.02428681403 -0.000486719684 0.0001259538985 )
( 0.02689623088 -0.0003872197703 0.0002077649551 )
( 0.02806185558 -0.0003276389907 0.000249100558 )
( 0.02862878144 -0.0002832647006 0.0002429472661 )
( -0.00172688684 0.0008316661115 5.503013745e-05 )
( -0.00170771149 0.0007971256273 5.871208486e-05 )
( -0.001691471087 0.0008061580593 6.006403055e-05 )
( -0.001791361254 0.0008555240929 5.813123425e-05 )
( -0.001632774132 0.0008433699259 6.092994226e-05 )
( 0.02882714011 -0.0002779871575 0.0002113266964 )
( -0.0007351658423 0.0004449807748 3.319533425e-05 )
( -0.0007481630309 0.0004540358495 3.296662908e-05 )
( -0.0005029109307 0.0003156386665 3.096309229e-05 )
( -0.0004566658463 0.0002958539699 3.166978058e-05 )
( -0.0004535195767 0.0002914865327 3.134390136e-05 )
( -0.0001573471964 0.0001140310269 2.910652074e-05 )
( 0.02890699357 -0.000246485346 0.0001691009238 )
( -0.0001615278306 0.0001192372729 2.960014353e-05 )
( -0.0001735600381 0.0001304361358 3.019221731e-05 )
( -5.877442891e-05 5.897915253e-05 2.78133939e-05 )
( -8.220221935e-05 7.156291394e-05 2.749400483e-05 )
( -7.430017286e-05 6.711012975e-05 2.794140892e-05 )
( 5.967330708e-06 3.864317023e-06 1.12531352e-05 )
( -3.663261623e-06 9.872016562e-06 1.084780706e-05 )
( 3.457650564e-06 1.501941597e-06 7.121894214e-06 )
( 1.025155143e-07 1.371316921e-05 1.600268297e-05 )
( 1.137907566e-05 5.599410997e-06 1.66103182e-05 )
( 1.577672811e-05 -1.087160172e-06 1.167083337e-05 )
( -1.267061452e-05 2.52146292e-05 2.217082692e-05 )
( -2.436657269e-06 1.715814324e-05 2.278205648e-05 )
( 2.205286728e-05 -5.861173804e-07 1.729013275e-05 )
( -3.255173397e-06 5.132241313e-06 6.572357051e-06 )
( -1.095344851e-05 9.882491213e-06 5.895017694e-06 )
( -2.028650306e-05 1.43678717e-05 5.288612556e-06 )
( -3.43652755e-05 2.207587931e-05 3.970027137e-06 )
( -2.727191168e-05 1.785074528e-05 4.615324542e-06 )
( -1.873768088e-05 1.123824131e-05 1.830302836e-06 )
( -2.578521344e-05 1.508347941e-05 1.215367433e-06 )
( -2.202019277e-05 1.289404645e-05 1.513927714e-06 )
( -2.982313708e-05 1.663235162e-05 8.360671018e-07 )
( -0.0008344821399 0.0004661526473 3.640543582e-05 )
( -0.0008385668043 0.0004650845367 3.719158121e-05 )
( -0.0008896806976 0.0004766073835 3.904361802e-05 )
( -0.0005499093095 0.0003091101826 3.233642201e-05 )
( -0.0004873871221 0.0002958773402 3.09680654e-05 )
( -0.000473861699 0.0002767568803 3.116326843e-05 )
( -0.001191821531 0.0005725389346 5.166498158e-05 )
( -0.001038243528 0.0005174896214 4.739496217e-05 )
( -0.0009014026145 0.0004546976706 4.371947216e-05 )
( -0.000839407905 0.0004355662095 4.102926323e-05 )
( -0.0008403896354 0.0004388987436 4.003151116e-05 )
( -0.001311140368 0.000613739423 5.494157449e-05 )
( -0.001492933021 0.0007034823648 5.556051474e-05 )
( -0.0009335968643 0.0006759955431 5.920980402e-05 )
( -0.001619446208 0.0008023091941 6.077619037e-05 )
( 0.0006452887319 0.0004398987803 5.067965685e-05 )
( 0.0197346136 -0.000446236314 6.658271741e-05 )
( 0.025166573 -0.0003957366862 0.0001536325872 )
( 0.01097260974 -0.0002780542418 1.70397052e-05 )
( 0.005135550164 2.379787111e-05 2.542372022e-05 )
( 0.02707101777 -0.0003337526869 0.0002133788221 )
( 0.02816124447 -0.0002826421405 0.0002519792179 )
( 0.02866700292 -0.0002458948002 0.0002422224061 )
( 0.02884432673 -0.0002487774182 0.0002100139245 )
( -0.001662465977 0.0007706581964 5.727842654e-05 )
( -0.001602674485 0.0007212550845 5.935334775e-05 )
( -0.00159498537 0.000718850235 5.819895159e-05 )
( -0.001658449415 0.0007442019996 6.083613698e-05 )
( -0.0004670231137 0.0002886019938 3.033458052e-05 )
( -0.0004694103845 0.0002929549955 3.045339326e-05 )
( -0.0001626722806 0.0001131510362 2.629443043e-05 )
( -0.0001712140074 0.0001223111904 2.813419997e-05 )
( -0.0001619727554 0.0001169939351 2.71000099e-05 )
( -1.605574289e-05 2.885469075e-05 2.503916767e-05 )
( 0.02893045545 -0.000175238165 0.0001639357506 )
( -2.56914318e-05 3.47030109e-05 2.600295011e-05 )
( -3.55928496e-05 4.438531687e-05 2.68749136e-05 )
( 3.078458394e-05 5.651091328e-07 2.348964153e-05 )
( 7.85767952e-06 1.245428575e-05 2.346149813e-05 )
( 1.699771201e-05 7.38914332e-06 2.368437163e-05 )
( 1.915498797e-05 -6.960024621e-06 7.649725376e-06 )
( 1.191842875e-05 -2.618007329e-06 7.345503946e-06 )
( 8.580476788e-06 -3.267045486e-06 4.06569643e-06 )
( 2.800909897e-05 -7.202751931e-06 1.194517426e-05 )
( 3.702761023e-05 -1.337872618e-05 1.235332547e-05 )
( 2.60325105e-05 -1.050466653e-05 7.888244909e-06 )
( 3.663827374e-05 -9.067793144e-06 1.768428956e-05 )
( 4.557866851e-05 -1.593783236e-05 1.813438757e-05 )
( 4.524046744e-05 -1.829095163e-05 1.28382253e-05 )
( 4.71356816e-06 -1.187070666e-06 3.766719601e-06 )
( -5.741981113e-09 1.644099029e-06 3.34617198e-06 )
( -5.423645689e-06 4.295164672e-06 3.014812364e-06 )
( -1.382871233e-05 8.908246855e-06 2.189507541e-06 )
( -9.456322914e-06 6.33678701e-06 2.646861049e-06 )
( -6.552224022e-06 4.445720151e-06 8.534810831e-07 )
( -9.863275409e-06 6.262066108e-06 5.256188729e-07 )
( -8.016099855e-06 5.194728601e-06 6.748482519e-07 )
( -1.172447901e-05 6.976229997e-06 4.550345523e-07 )
( -0.0005284482031 0.000296132901 3.252683746e-05 )
( -0.0005329011474 0.000294920319 3.307612496e-05 )
( -0.0005655692657 0.0003001549921 3.486189235e-05 )
( -0.0001752117969 0.0001010775813 2.583464993e-05 )
( -0.0001505408873 9.769480675e-05 2.47112057e-05 )
( -0.000160974465 0.0001007970714 2.518132715e-05 )
( -0.001085814671 0.0005172948004 5.223271364e-05 )
( -0.0009226005641 0.0004489659914 4.860427362e-05 )
( -0.0008661309257 0.0004358714505 4.503485252e-05 )
( -0.0008719953476 0.0004369007656 4.617100058e-05 )
( -0.0005791207659 0.00028811011 3.929399099e-05 )
( -0.0005438060034 0.0002781875373 3.710032979e-05 )
( -0.0005375061301 0.0002800219227 3.582585487e-05 )
( -0.001135445666 0.0005270602414 5.427777796e-05 )
( -0.001428693999 0.0006528873928 5.692363629e-05 )
( -0.001061696792 0.0006483864272 6.063319597e-05 )
( -0.001377433538 0.0006667072885 6.157311145e-05 )
( -0.001572304522 0.0007007158129 6.136100274e-05 )
( -0.001608902472 0.0007463465445 6.113934796e-05 )
( 0.0003614529269 0.0004185971338 5.125017196e-05 )
( -0.001121768961 0.000624408829 6.06160429e-05 )
( 0.0200391598 -0.0003995475126 7.256669051e-05 )
( 0.02573252842 -0.0003230161383 0.0001712134253 )
( 0.02759297565 -0.0002607669448 0.0002284391958 )
( 0.01480566431 -0.000391177251 1.93618871e-05 )
( 0.004487023223 5.728488395e-05 2.850307283e-05 )
( 0.009009301662 -0.0002042727574 1.202532167e-05 )
( 0.02830495872 -0.0002291426645 0.000254137005 )
( 0.02870268188 -0.000209388294 0.0002409325534 )
( 0.02886317298 -0.0002084072621 0.0002076053934 )
( -0.001464975765 0.000634892087 5.865075218e-05 )
( -0.001528576831 0.0006523932097 6.023504466e-05 )
( -0.001351700397 0.000607586524 5.694074207e-05 )
( -0.001653729938 0.0007060787175 6.120069884e-05 )
( -0.0001401215122 9.824432345e-05 2.475452129e-05 )
( -0.0001443128567 0.0001024822268 2.521635543e-05 )
( 1.427038387e-05 9.530676834e-06 2.146766565e-05 )
( 1.992455509e-06 1.851075649e-05 2.36413216e-05 )
( 8.445949788e-06 1.226354834e-05 2.255779509e-05 )
( 6.652969751e-05 -2.310419586e-05 2.059023063e-05 )
( 0.02895722352 -9.912715177e-05 0.0001585720602 )
( 0.02887991443 -0.0001780070015 0.0002057487145 )
( 5.714200597e-05 -1.79450908e-05 2.157631752e-05 )
( 4.823830386e-05 -1.001602323e-05 2.255292929e-05 )
( 7.537717465e-05 -3.09344905e-05 1.849722321e-05 )
( 5.5254779e-05 -2.048924944e-05 1.85937115e-05 )
( 6.393209333e-05 -2.528883306e-05 1.875562157e-05 )
( 1.792743569e-05 -8.301625712e-06 4.326957878e-06 )
( 1.346710997e-05 -5.675423836e-06 4.193942914e-06 )
( 6.709803984e-06 -2.625415618e-06 1.931453198e-06 )
( 3.441274021e-05 -1.468909431e-05 8.062776033e-06 )
( 4.144521881e-05 -1.920796421e-05 8.358150808e-06 )
( 2.196864079e-05 -1.038640494e-05 4.473678018e-06 )
( 5.543249426e-05 -2.432784822e-05 1.305306705e-05 )
( 6.253392348e-05 -2.973988558e-05 1.339720075e-05 )
( 4.690080823e-05 -2.247445263e-05 8.650387826e-06 )
( 4.936005553e-06 -1.677577075e-06 1.742888344e-06 )
( 2.553817467e-06 -2.750780368e-07 1.555824952e-06 )
( -8.802741291e-08 1.044266241e-06 1.373905889e-06 )
( -4.138662916e-06 3.265735813e-06 9.389063393e-07 )
( -1.937695288e-06 1.9857398e-06 1.263273475e-06 )
( -0.0001655098604 9.551320545e-05 2.636651334e-05 )
( -0.0001687499171 9.566991503e-05 2.710104854e-05 )
( -0.0001823286148 9.622548532e-05 2.835176201e-05 )
( 2.226901961e-05 -6.059197858e-06 2.078360012e-05 )
( 3.054829358e-05 -5.241331564e-06 1.979440276e-05 )
( 2.503894393e-05 -6.376702004e-06 2.000083259e-05 )
( -0.0008747800021 0.0004156781943 4.979832374e-05 )
( -0.0008637552965 0.0004110788577 5.049619358e-05 )
( -0.0006009663921 0.0002862939436 4.429945693e-05 )
( -0.0005610618973 0.0002785314573 4.071704461e-05 )
( -0.0005663225893 0.0002786618134 4.193210043e-05 )
( -0.0001988615695 9.25005952e-05 3.237454075e-05 )
( -0.0001800915488 8.982944564e-05 3.082723197e-05 )
( -0.000174493267 8.932127093e-05 2.950646012e-05 )
( -0.000868236355 0.0004047661496 5.148826676e-05 )
( -0.0008968869806 0.0004127136199 5.261184197e-05 )
( -0.001517206198 0.000636756944 6.192777073e-05 )
( -0.001443895395 0.000628877955 6.251085142e-05 )
( -0.00159996748 0.0006546358345 6.144483632e-05 )
( -0.001160967164 0.0005597316194 6.204481178e-05 )
( -0.0005212636897 0.0004597744846 5.684158532e-05 )
( -0.001116072293 0.0005818191567 6.074205521e-05 )
( 0.0005062991404 0.0003622429213 4.874988008e-05 )
( 0.02047314309 -0.0003875380498 7.051763532e-05 )
( 0.02594350465 -0.0002715525334 0.0001771125535 )
( 0.02773056924 -0.0002135077521 0.0002317946492 )
( 0.02846165746 -0.0001752198586 0.000254060782 )
( 0.01520787738 -0.0003709029988 2.2069029e-05 )
( 0.003352775704 0.0001260814606 3.169939373e-05 )
( 0.007851061411 -0.0001570037566 9.301082173e-06 )
( 0.02874995396 -0.0001686790201 0.0002401518286 )
( -0.001215331606 0.000529226847 5.644072735e-05 )
( -0.00137347728 0.0005807749694 5.933927969e-05 )
( -0.001493687858 0.0006138141616 6.096456491e-05 )
( -0.0009795624064 0.0004341093299 5.372745363e-05 )
( 3.129837205e-05 -3.525057764e-06 1.978171895e-05 )
( 2.852297257e-05 1.550123784e-06 2.056168159e-05 )
( 9.396186942e-05 -3.964938878e-05 1.726870323e-05 )
( 8.041679394e-05 -3.069402374e-05 1.922706178e-05 )
( 8.701303159e-05 -3.63986037e-05 1.812183655e-05 )
( 0.0001043742232 -4.910313874e-05 1.610243817e-05 )
( 0.02898787521 -1.626889207e-05 0.0001524307008 )
( 0.02891675942 -0.0001027984181 0.0002011737961 )
( 0.02889982425 -0.0001355987915 0.0002035440411 )
( 9.612961003e-05 -4.461513527e-05 1.692544538e-05 )
( 8.8170651e-05 -3.828219269e-05 1.768980474e-05 )
( 8.618297579e-05 -4.179304233e-05 1.361007162e-05 )
( 7.03717451e-05 -3.350741463e-05 1.371354119e-05 )
( 7.754130638e-05 -3.745361391e-05 1.377577064e-05 )
( 1.131479166e-05 -5.11745111e-06 2.062784461e-06 )
( 9.067464816e-06 -3.812210934e-06 1.940375796e-06 )
( 2.685157779e-05 -1.284582777e-05 4.542482657e-06 )
( 3.125796138e-05 -1.556137431e-05 4.739042197e-06 )
( 1.320093361e-05 -6.098267477e-06 2.101601012e-06 )
( 5.34795181e-05 -2.644917186e-05 8.783864359e-06 )
( 5.811345909e-05 -3.004070641e-05 8.964476365e-06 )
( 3.460954758e-05 -1.750320735e-05 4.913228622e-06 )