/*--------------------------------*- C++ -*----------------------------------*\
  =========                 |
  \\      /  F ield         | OpenFOAM: The Open Source CFD Toolbox
   \\    /   O peration     | Website:  https://openfoam.org
    \\  /    A nd           | Version:  8
     \\/     M anipulation  |
\*---------------------------------------------------------------------------*/






FoamFile
{
    version     2.0;
    format      ascii;
    class       volSymmTensorField;
    location    "0";
    object      TauDDES;
}
// * * * * * * * * * * * * * * * * * * * * * * * * * * * * * * * * * * * * * //

dimensions      [0 2 -2 0 0 0 0];


internalField   nonuniform List<symmTensor>
24767
(
( 7.50534781e-08 3.608278121e-08 3.555794992e-09 1.738924205e-08 1.698419849e-09 2.852417822e-07 )
( 3.026127615e-07 1.434733292e-07 1.404522276e-08 6.835913524e-08 6.695309196e-09 1.100815666e-06 )
( 7.478860198e-08 3.49854794e-08 3.358979983e-09 1.639626035e-08 1.567247998e-09 2.788412417e-07 )
( 8.575406696e-07 3.989805464e-07 3.809129723e-08 1.876706932e-07 1.808052197e-08 2.964078703e-06 )
( 3.01668905e-07 1.40308174e-07 1.342133782e-08 6.555735155e-08 6.294554211e-09 1.081000846e-06 )
( 7.992866102e-08 3.715494756e-08 3.452327313e-09 1.7303325e-08 1.598625343e-09 2.886587254e-07 )
( 1.821072942e-06 8.277897905e-07 7.474519492e-08 3.846327843e-07 3.546644223e-08 5.950993454e-06 )
( 8.54914731e-07 3.923039458e-07 3.683775773e-08 1.819286126e-07 1.725277166e-08 2.914990318e-06 )
( 3.163111444e-07 1.458056289e-07 1.359287616e-08 6.752877368e-08 6.31070618e-09 1.104256739e-06 )
( 8.027878096e-08 3.721503816e-08 3.343009647e-09 1.728482069e-08 1.541814121e-09 2.838813771e-07 )
( 3.194842975e-06 1.411408334e-06 1.164871222e-07 6.498349876e-07 5.562543492e-08 9.938644325e-06 )
( 1.813209451e-06 8.158153264e-07 7.27199847e-08 3.750700728e-07 3.412995753e-08 5.860922101e-06 )
( 8.883155829e-07 4.042628063e-07 3.704088414e-08 1.85996015e-07 1.71956831e-08 2.96638791e-06 )
( 3.192951397e-07 1.468829964e-07 1.32993625e-08 6.788268081e-08 6.148837439e-09 1.095463404e-06 )
( 8.183094735e-08 3.801248027e-08 3.323102904e-09 1.769010183e-08 1.534202765e-09 2.827751757e-07 )
( 4.793611424e-06 2.042419055e-06 1.512721468e-07 9.390751643e-07 7.318847395e-08 1.44684027e-05 )
( 3.176189921e-06 1.391823275e-06 1.135464558e-07 6.353209869e-07 5.362676347e-08 9.804791262e-06 )
( 1.869188509e-06 8.346932532e-07 7.254830336e-08 3.811700253e-07 3.369707002e-08 5.951995263e-06 )
( 8.940881457e-07 4.060757703e-07 3.620781541e-08 1.864433301e-07 1.669837957e-08 2.951390798e-06 )
( 3.238365593e-07 1.49099705e-07 1.305126407e-08 6.894961757e-08 6.026166233e-09 1.093814831e-06 )
( 8.481817559e-08 3.924639458e-08 3.329401421e-09 1.819204698e-08 1.53133406e-09 2.917152244e-07 )
( 6.284998108e-06 2.555192623e-06 1.733917685e-07 1.193597541e-06 8.582865973e-08 1.881993921e-05 )
( 4.761297987e-06 2.014934807e-06 1.479179303e-07 9.191132904e-07 7.084136655e-08 1.429578151e-05 )
( 3.250299415e-06 1.41344367e-06 1.129542255e-07 6.413747542e-07 5.286144855e-08 9.938226867e-06 )
( 1.873421752e-06 8.344330809e-07 7.117559875e-08 3.800842876e-07 3.285093086e-08 5.929996405e-06 )
( 9.018587548e-07 4.093121504e-07 3.553411076e-08 1.877590279e-07 1.633969759e-08 2.945961114e-06 )
( 3.327419051e-07 1.52527079e-07 1.29901192e-08 7.025727911e-08 5.970517858e-09 1.11622785e-06 )
( 8.420401088e-08 3.889867983e-08 3.147343053e-09 1.800365013e-08 1.441855968e-09 2.867512592e-07 )
( 7.436387023e-06 2.840684147e-06 1.80867076e-07 1.391547926e-06 9.241441035e-08 2.233194391e-05 )
( 6.244653832e-06 2.524246156e-06 1.698265635e-07 1.169331881e-06 8.323735301e-08 1.862163845e-05 )
( 4.841480404e-06 2.031911663e-06 1.460630585e-07 9.222427479e-07 6.927000129e-08 1.445325324e-05 )
( 3.243714673e-06 1.405733769e-06 1.10289065e-07 6.358084192e-07 5.113621171e-08 9.903170394e-06 )
( 1.878794706e-06 8.349248901e-07 6.960544141e-08 3.793699079e-07 3.191830444e-08 5.912364941e-06 )
( 9.223550705e-07 4.165288487e-07 3.5123918e-08 1.902413089e-07 1.603738653e-08 2.997007414e-06 )
( 3.314241042e-07 1.518154846e-07 1.244887393e-08 6.987936985e-08 5.701576544e-09 1.106162927e-06 )
( 8.449597999e-08 3.912086299e-08 3.01843639e-09 1.814708028e-08 1.384840242e-09 2.853511774e-07 )
( 8.260485629e-06 2.896945716e-06 1.6776265e-07 1.560158694e-06 9.033699655e-08 2.469442006e-05 )
( 7.396761248e-06 2.814927484e-06 1.784373183e-07 1.366032507e-06 9.014707558e-08 2.213164043e-05 )
( 6.322378795e-06 2.531915015e-06 1.671046448e-07 1.169257075e-06 8.114496097e-08 1.876916576e-05 )
( 4.820433332e-06 2.013840913e-06 1.42674466e-07 9.104161904e-07 6.713295164e-08 1.439532389e-05 )
( 3.239059879e-06 1.398723839e-06 1.08085203e-07 6.302688575e-07 4.972196521e-08 9.859570127e-06 )
( 1.914523864e-06 8.461549328e-07 6.884350512e-08 3.827717023e-07 3.132079485e-08 6.00357771e-06 )
( 9.172287605e-07 4.139499765e-07 3.385994418e-08 1.889296755e-07 1.54057691e-08 2.976639507e-06 )
( 3.312596561e-07 1.519568542e-07 1.194954447e-08 7.002663693e-08 5.478773435e-09 1.102326337e-06 )
( 8.661396578e-08 3.994799158e-08 2.996287662e-09 1.846000153e-08 1.369233504e-09 2.945411381e-07 )
( 8.869513294e-06 2.779982651e-06 1.328151455e-07 1.731232601e-06 7.967757654e-08 2.59171502e-05 )
( 8.229946616e-06 2.881077762e-06 1.672833321e-07 1.535307774e-06 8.862354406e-08 2.452454646e-05 )
( 7.470246601e-06 2.810900469e-06 1.74083965e-07 1.363195452e-06 8.705972476e-08 2.22337203e-05 )
( 6.289851626e-06 2.505036491e-06 1.624213297e-07 1.151461902e-06 7.83515901e-08 1.867868014e-05 )
( 4.801287105e-06 1.996972969e-06 1.393795515e-07 8.983838597e-07 6.485075943e-08 1.431042529e-05 )
( 3.288237622e-06 1.411276116e-06 1.065692103e-07 6.332861631e-07 4.851452928e-08 9.992105333e-06 )
( 1.898064397e-06 8.379728342e-07 6.644940242e-08 3.786841773e-07 3.004138449e-08 5.968105143e-06 )
( 9.116407114e-07 4.114633612e-07 3.25851417e-08 1.877654938e-07 1.478629841e-08 2.961862947e-06 )
( 3.360802907e-07 1.535145486e-07 1.176809317e-08 7.047115247e-08 5.360909938e-09 1.123364314e-06 )
( 8.489968195e-08 3.909146784e-08 2.805575106e-09 1.803285343e-08 1.278799067e-09 2.885209938e-07 )
( 9.19530612e-06 2.632621317e-06 9.895802577e-08 1.847107114e-06 6.708515343e-08 2.613841025e-05 )
( 8.857691682e-06 2.770018227e-06 1.322561616e-07 1.712232006e-06 7.839972938e-08 2.580203e-05 )
( 8.300691661e-06 2.868047204e-06 1.620211521e-07 1.531341468e-06 8.489264047e-08 2.455950562e-05 )
( 7.43894816e-06 2.781657486e-06 1.694469063e-07 1.341809025e-06 8.446831146e-08 2.211661013e-05 )
( 6.262957868e-06 2.48268293e-06 1.592654826e-07 1.13423971e-06 7.610105257e-08 1.855173468e-05 )
( 4.859170531e-06 2.006643854e-06 1.37493771e-07 8.995936014e-07 6.330783719e-08 1.44672631e-05 )
( 3.253604064e-06 1.393457637e-06 1.032989729e-07 6.240872494e-07 4.667068509e-08 9.931279237e-06 )
( 1.8776243e-06 8.275837331e-07 6.398331465e-08 3.732837968e-07 2.876356398e-08 5.923418485e-06 )
( 9.205085121e-07 4.133776201e-07 3.193301268e-08 1.878025699e-07 1.440865471e-08 3.002983703e-06 )
( 3.305409564e-07 1.508222454e-07 1.107967584e-08 6.915549733e-08 5.041019602e-09 1.109014192e-06 )
( 8.429483245e-08 3.88654442e-08 2.686354916e-09 1.795068449e-08 1.22781596e-09 2.868322611e-07 )
( 9.425982171e-06 2.503838687e-06 7.259637869e-08 1.928062375e-06 5.498145583e-08 2.603501343e-05 )
( 9.466411029e-06 2.486869562e-06 6.882329018e-08 1.987468067e-06 5.458030117e-08 2.618163307e-05 )
( 8.93995275e-06 2.736507668e-06 1.248396018e-07 1.719323336e-06 7.233276023e-08 2.575942926e-05 )
( 8.280205293e-06 2.842613185e-06 1.584470937e-07 1.507090587e-06 8.235753768e-08 2.443299854e-05 )
( 7.411002116e-06 2.760549251e-06 1.669984044e-07 1.321762056e-06 8.233908488e-08 2.196328751e-05 )
( 6.325678441e-06 2.485845471e-06 1.562607963e-07 1.133398996e-06 7.371867383e-08 1.869942571e-05 )
( 4.80623703e-06 1.978314003e-06 1.332989257e-07 8.844064041e-07 6.074068182e-08 1.437110495e-05 )
( 3.209390343e-06 1.370313498e-06 9.968228909e-08 6.117118119e-07 4.464117254e-08 9.833985132e-06 )
( 1.888837801e-06 8.278373116e-07 6.267215014e-08 3.717082109e-07 2.796416432e-08 5.985326879e-06 )
( 9.036006077e-07 4.05334049e-07 3.035592044e-08 1.83935839e-07 1.364250668e-08 2.97010638e-06 )
( 3.268706621e-07 1.493453397e-07 1.059570742e-08 6.855049151e-08 4.822878097e-09 1.104951593e-06 )
( 8.518950523e-08 3.918310298e-08 2.549213729e-09 1.805598338e-08 1.16587362e-09 2.978440818e-07 )
( 9.797010534e-06 2.260048859e-06 3.676399984e-08 2.080338163e-06 4.217700678e-08 2.571038749e-05 )
( 9.720931303e-06 2.299796279e-06 4.52076776e-08 2.090281896e-06 4.487810656e-08 2.586986739e-05 )
( 9.901950762e-06 2.164445959e-06 2.415576361e-08 2.25561871e-06 3.852878194e-08 2.577647138e-05 )
( 8.915259968e-06 2.740161108e-06 1.256116207e-07 1.678540343e-06 7.139725966e-08 2.565465547e-05 )
( 8.258212802e-06 2.826321634e-06 1.571024626e-07 1.485826942e-06 8.082314196e-08 2.428226799e-05 )
( 7.479173746e-06 2.755216201e-06 1.626004575e-07 1.31957745e-06 7.921433109e-08 2.206984936e-05 )
( 6.26526753e-06 2.452076387e-06 1.515307417e-07 1.113485723e-06 7.081540332e-08 1.856767631e-05 )
( 4.740987606e-06 1.944245241e-06 1.294973515e-07 8.648644325e-07 5.835816097e-08 1.420635999e-05 )
( 3.220816325e-06 1.366711786e-06 9.724403327e-08 6.07387733e-07 4.312974511e-08 9.905274965e-06 )
( 1.85022202e-06 8.097297837e-07 5.963894267e-08 3.630361221e-07 2.652721065e-08 5.921128377e-06 )
( 8.899194768e-07 3.992377344e-07 2.877925631e-08 1.811743573e-07 1.29536053e-08 2.95654786e-06 )
( 3.286360197e-07 1.495617141e-07 1.009699435e-08 6.84183874e-08 4.592584979e-09 1.135933871e-06 )
( 8.37983265e-08 3.841564933e-08 2.348247818e-09 1.764819935e-08 1.071603584e-09 3.000585593e-07 )
( 1.00181378e-05 2.117533768e-06 1.451397047e-08 2.156591563e-06 3.157856199e-08 2.542571747e-05 )
( 9.328231499e-06 2.558138249e-06 8.552634512e-08 1.833036094e-06 5.633616951e-08 2.585630136e-05 )
( 1.009669722e-05 2.020968623e-06 1.028149299e-08 2.259848543e-06 3.399787118e-08 2.538473746e-05 )
( 1.005605827e-05 2.039360197e-06 7.629217258e-09 2.299595735e-06 3.2338491e-08 2.549277269e-05 )
( 1.049876482e-05 1.636528168e-06 -4.175365831e-08 2.686279231e-06 1.882321499e-08 2.487628808e-05 )
( 8.908180462e-06 2.730391316e-06 1.246890804e-07 1.660988346e-06 6.997638025e-08 2.554015919e-05 )
( 8.328595868e-06 2.813408855e-06 1.517069279e-07 1.482004677e-06 7.698503168e-08 2.431992107e-05 )
( 7.426218872e-06 2.722402314e-06 1.571670225e-07 1.296360892e-06 7.597035534e-08 2.191663407e-05 )
( 6.192773981e-06 2.415452172e-06 1.475039682e-07 1.089516672e-06 6.792158302e-08 1.834840441e-05 )
( 4.752513632e-06 1.935422233e-06 1.264851619e-07 8.576228083e-07 5.623525823e-08 1.427079769e-05 )
( 3.153039415e-06 1.334901526e-06 9.333632534e-08 5.919142723e-07 4.109972096e-08 9.796149243e-06 )
( 1.817185876e-06 7.936919815e-07 5.676047365e-08 3.551932934e-07 2.516541819e-08 5.880959179e-06 )
( 8.941633496e-07 3.98625815e-07 2.751150241e-08 1.799797218e-07 1.232609481e-08 3.024947773e-06 )
( 3.232368897e-07 1.462758235e-07 9.289903957e-09 6.657601404e-08 4.213821736e-09 1.141131861e-06 )
( 7.992767337e-08 3.65201096e-08 2.137977351e-09 1.672558092e-08 9.739480333e-10 2.895099271e-07 )
( 9.550352843e-06 2.446988447e-06 6.309473122e-08 1.901619612e-06 4.616531157e-08 2.574819337e-05 )
( 1.008451909e-05 2.065633907e-06 8.910302718e-09 2.139395292e-06 2.728432946e-08 2.521885108e-05 )
( 1.049734055e-05 1.730452254e-06 -3.009289529e-08 2.443851599e-06 2.111659292e-08 2.481466072e-05 )
( 1.047762817e-05 1.721943363e-06 -3.062587339e-08 2.501999234e-06 2.067851668e-08 2.488022437e-05 )
( 1.072855957e-05 1.454951871e-06 -6.870095604e-08 2.792489795e-06 1.060811616e-08 2.445086648e-05 )
( 1.111259371e-05 1.046159923e-06 -1.100700544e-07 3.164088184e-06 5.459717567e-09 2.374240648e-05 )
( 8.997676559e-06 2.690548399e-06 1.155634735e-07 1.668194955e-06 6.419153209e-08 2.549147393e-05 )
( 8.293354767e-06 2.78526727e-06 1.473381701e-07 1.455475854e-06 7.428529614e-08 2.417159158e-05 )
( 7.358868061e-06 2.693491524e-06 1.542242387e-07 1.270775556e-06 7.346591246e-08 2.168163701e-05 )
( 6.210406355e-06 2.403307008e-06 1.443308832e-07 1.080915467e-06 6.542524744e-08 1.838929529e-05 )
( 4.661946605e-06 1.892633236e-06 1.219347325e-07 8.35937783e-07 5.368481837e-08 1.41067294e-05 )
( 3.097223271e-06 1.306051786e-06 8.900304493e-08 5.769649647e-07 3.900721879e-08 9.702764146e-06 )
( 1.828581276e-06 7.916784739e-07 5.455373042e-08 3.519442942e-07 2.406182276e-08 5.992425031e-06 )
( 8.811655903e-07 3.897056615e-07 2.569148627e-08 1.747277594e-07 1.14607408e-08 3.035745294e-06 )
( 3.093503835e-07 1.392731832e-07 8.452063049e-09 6.307686107e-08 3.805767257e-09 1.110376047e-06 )
( 7.505867927e-08 3.416267091e-08 1.822448525e-09 1.559082996e-08 8.218867809e-10 2.832033772e-07 )
( 9.702394891e-06 2.357949597e-06 4.898366512e-08 1.926482582e-06 3.838898266e-08 2.564240276e-05 )
( 1.074755255e-05 1.514147925e-06 -6.295444166e-08 2.575936378e-06 9.725934724e-09 2.42655351e-05 )
( 1.029854229e-05 1.907316118e-06 -1.38302898e-08 2.223127467e-06 1.842414932e-08 2.497171226e-05 )
( 1.08708482e-05 1.409827405e-06 -7.358421783e-08 2.72901616e-06 7.128795332e-09 2.42134447e-05 )
( 1.104900639e-05 1.206738943e-06 -1.02667876e-07 2.948586825e-06 2.529652487e-09 2.382811908e-05 )
( 1.168586732e-05 5.71696944e-07 -1.718671001e-07 3.500608955e-06 -6.235720384e-09 2.260405381e-05 )
( 1.205295121e-05 1.625899415e-08 -1.981658215e-07 4.058914783e-06 2.847473812e-09 2.173435132e-05 )
( 8.945359696e-06 2.692559292e-06 1.1731656e-07 1.617775411e-06 6.447933742e-08 2.536659485e-05 )
( 8.235450878e-06 2.767260185e-06 1.456570971e-07 1.429453619e-06 7.23803808e-08 2.396357559e-05 )
( 7.386724064e-06 2.678494866e-06 1.488891286e-07 1.261637749e-06 6.981407807e-08 2.168851825e-05 )
( 6.114129064e-06 2.357172434e-06 1.393285061e-07 1.05527738e-06 6.248494344e-08 1.818372766e-05 )
( 4.591779998e-06 1.854314746e-06 1.172107602e-07 8.143470041e-07 5.115152391e-08 1.39470485e-05 )
( 3.125102239e-06 1.303495651e-06 8.590923528e-08 5.714868507e-07 3.731480192e-08 9.851479263e-06 )
( 1.809341711e-06 7.756386822e-07 5.144227444e-08 3.419915799e-07 2.248563469e-08 6.011151527e-06 )
( 8.459438163e-07 3.71507042e-07 2.346199501e-08 1.654550204e-07 1.036179231e-08 2.962961617e-06 )
( 2.913717765e-07 1.303334898e-07 7.498510257e-09 5.865897634e-08 3.348932243e-09 1.086871293e-06 )
( 6.974324407e-08 3.108456781e-08 1.543958517e-09 1.390050564e-08 6.746979087e-10 2.852475234e-07 )
( 9.293076801e-06 2.569398248e-06 8.78308839e-08 1.727857352e-06 5.317582463e-08 2.562520967e-05 )
( 9.998331734e-06 2.137503543e-06 1.831143237e-08 2.048055421e-06 2.753861139e-08 2.529612539e-05 )
( 1.132897432e-05 1.005732088e-06 -1.298065087e-07 3.030876314e-06 -4.863468739e-09 2.330612006e-05 )
( 1.094409345e-05 1.358162081e-06 -8.662322415e-08 2.661303142e-06 3.317422337e-09 2.392278475e-05 )
( 1.057894497e-05 1.685954885e-06 -4.096051143e-08 2.344471341e-06 1.216386458e-08 2.451669025e-05 )
( 1.130920919e-05 1.010061055e-06 -1.288402132e-07 3.083370075e-06 -5.417502003e-09 2.338252125e-05 )
( 1.203124521e-05 2.932102916e-07 -2.093482294e-07 3.695790156e-06 -8.087228665e-09 2.195818888e-05 )
( 1.233920102e-05 -2.300084532e-07 -2.207007412e-07 4.239544978e-06 4.905861051e-09 2.115282223e-05 )
( 1.257164877e-05 -7.008310945e-07 -2.208454219e-07 4.734449703e-06 3.402623605e-08 2.047220914e-05 )
( 8.916016668e-06 2.682431841e-06 1.172477297e-07 1.597029836e-06 6.316321333e-08 2.523065814e-05 )
( 8.272052582e-06 2.751172815e-06 1.399960183e-07 1.419665978e-06 6.844886968e-08 2.393214527e-05 )
( 7.30185684e-06 2.637128318e-06 1.440522794e-07 1.233957846e-06 6.70411211e-08 2.147154009e-05 )
( 6.045619557e-06 2.318387487e-06 1.354692785e-07 1.030381554e-06 6.006303721e-08 1.797201003e-05 )
( 4.645086847e-06 1.852941182e-06 1.13182459e-07 8.083483181e-07 4.893740879e-08 1.411402718e-05 )
( 3.10831615e-06 1.282653443e-06 8.173850574e-08 5.578945093e-07 3.515318525e-08 9.878328456e-06 )
( 1.745983695e-06 7.423136594e-07 4.736549286e-08 3.247415634e-07 2.048409797e-08 5.876738669e-06 )
( 8.026461842e-07 3.490732468e-07 2.123645082e-08 1.540285837e-07 9.271168722e-09 2.896161504e-06 )
( 2.75871912e-07 1.202594007e-07 6.679424125e-09 5.281946258e-08 2.888278727e-09 1.079853519e-06 )
( 6.514103035e-08 2.748374861e-08 1.417329476e-09 1.163493213e-08 5.855717022e-10 2.696830563e-07 )
( 9.608000255e-06 2.390150712e-06 5.688734461e-08 1.847793555e-06 4.055527114e-08 2.547895201e-05 )
( 1.030129079e-05 1.907942988e-06 -1.036951591e-08 2.174951078e-06 1.934335714e-08 2.490747647e-05 )
( 1.18674152e-05 5.946010333e-07 -1.866641526e-07 3.298785941e-06 -1.356385404e-08 2.233517262e-05 )
( 1.117624015e-05 1.178490379e-06 -1.105406469e-07 2.774628683e-06 -7.81737175e-10 2.350418436e-05 )
( 1.091226477e-05 1.42054887e-06 -7.631563648e-08 2.521935812e-06 3.12951931e-09 2.3937886e-05 )
( 1.240412894e-05 -3.787496183e-08 -2.426334049e-07 3.906101938e-06 -1.231724389e-09 2.116903852e-05 )
( 1.256179894e-05 -4.240921498e-07 -2.37621137e-07 4.359836112e-06 1.285054729e-08 2.072195093e-05 )
( 1.31881925e-05 -1.315004056e-06 -2.323463661e-07 5.194355253e-06 6.935673014e-08 1.931787665e-05 )
( 8.968447219e-06 2.651180012e-06 1.096217588e-07 1.594620926e-06 5.826572291e-08 2.515300002e-05 )
( 8.208252439e-06 2.719337317e-06 1.348365828e-07 1.388734404e-06 6.596395252e-08 2.373478492e-05 )
( 7.24407937e-06 2.605454711e-06 1.408582335e-07 1.208330673e-06 6.461094415e-08 2.124862476e-05 )
( 6.124043921e-06 2.316452537e-06 1.302617676e-07 1.024995413e-06 5.698475292e-08 1.813671042e-05 )
( 4.641908163e-06 1.830936412e-06 1.075540084e-07 7.932868584e-07 4.593556469e-08 1.415114548e-05 )
( 3.020447821e-06 1.23553184e-06 7.622355724e-08 5.328503221e-07 3.240212365e-08 9.673501154e-06 )
( 1.67228427e-06 7.028492632e-07 4.367740658e-08 3.040759395e-07 1.86885849e-08 5.736039384e-06 )
( 7.73528086e-07 3.281479337e-07 1.967893581e-08 1.414239819e-07 8.361097592e-09 2.863878763e-06 )
( 2.636606951e-07 1.104905607e-07 6.102947925e-09 4.664560294e-08 2.547804634e-09 1.034347861e-06 )
( 6.839854905e-08 2.832523016e-08 1.213823819e-09 1.176093889e-08 4.962044109e-10 2.661092822e-07 )
( 9.866002074e-06 2.232408633e-06 3.076137034e-08 1.929952305e-06 3.230630341e-08 2.527993638e-05 )
( 1.055585017e-05 1.717080522e-06 -3.608390386e-08 2.278025704e-06 1.184014664e-08 2.450375905e-05 )
( 1.244211035e-05 5.260626068e-08 -2.358557225e-07 3.71853821e-06 -1.293696528e-08 2.120523823e-05 )
( 1.138754851e-05 1.018577109e-06 -1.306752182e-07 2.872902542e-06 -6.788057227e-09 2.312927427e-05 )
( 1.147379044e-05 9.776431398e-07 -1.321901522e-07 2.850138799e-06 -7.818889536e-09 2.296287857e-05 )
( 1.298431198e-05 -6.650989803e-07 -2.746285759e-07 4.397869361e-06 1.945705819e-08 2.000681525e-05 )
( 1.277726915e-05 -5.790119531e-07 -2.606198279e-07 4.417920536e-06 1.921599591e-08 2.028398376e-05 )
( 1.372823226e-05 -1.871242603e-06 -2.291608325e-07 5.641356893e-06 1.035756512e-07 1.842984238e-05 )
( 8.906472431e-06 2.651635668e-06 1.104395437e-07 1.547037755e-06 5.78704018e-08 2.498893627e-05 )
( 8.161910046e-06 2.697034915e-06 1.331930548e-07 1.36462404e-06 6.413048936e-08 2.353151467e-05 )
( 7.339257081e-06 2.597788352e-06 1.356736448e-07 1.204819455e-06 6.12045099e-08 2.138076889e-05 )
( 6.138130175e-06 2.293205625e-06 1.239545497e-07 1.010115284e-06 5.352392307e-08 1.817812154e-05 )
( 4.544205694e-06 1.777283046e-06 1.015245701e-07 7.634949384e-07 4.287999644e-08 1.388977125e-05 )
( 2.922678959e-06 1.18186972e-06 7.067003338e-08 5.039103144e-07 2.979735569e-08 9.441568182e-06 )
( 1.638936283e-06 6.73765328e-07 4.091058869e-08 2.856132539e-07 1.710529318e-08 5.66677636e-06 )
( 7.49397941e-07 3.087428411e-07 1.845146969e-08 1.291967067e-07 7.651834721e-09 2.758548362e-06 )
( 2.728459663e-07 1.122080633e-07 5.704369865e-09 4.64364831e-08 2.354288098e-09 1.021796265e-06 )
( 7.314220341e-08 3.00574321e-08 1.264795269e-09 1.238767489e-08 5.068609976e-10 2.75072324e-07 )
( 9.33796764e-06 2.5073291e-06 7.895676646e-08 1.682845436e-06 4.624175176e-08 2.528375808e-05 )
( 1.009335756e-05 2.061139639e-06 6.40570974e-09 2.016103281e-06 2.293464263e-08 2.497904097e-05 )
( 1.091337708e-05 1.433342732e-06 -6.963575316e-08 2.452945409e-06 2.893505657e-09 2.384710569e-05 )
( 1.2746832e-05 -1.965351117e-07 -2.619267434e-07 3.880094937e-06 -1.003249217e-08 2.063704051e-05 )
( 1.197593792e-05 6.032533975e-07 -1.846795215e-07 3.088052608e-06 -1.379779491e-08 2.20075035e-05 )
( 1.111356687e-05 1.306949684e-06 -8.575792521e-08 2.513606432e-06 -2.336214777e-09 2.347389091e-05 )
( 1.359477483e-05 -1.233069611e-06 -3.043572292e-07 4.791767424e-06 4.275583976e-08 1.896782123e-05 )
( 1.411418543e-05 -2.174852852e-06 -2.284983367e-07 5.849330591e-06 1.240156138e-07 1.795879871e-05 )
( 8.885193893e-06 2.637637635e-06 1.096075977e-07 1.529133783e-06 5.660760749e-08 2.485518235e-05 )
( 8.263033124e-06 2.680184025e-06 1.27306393e-07 1.365160301e-06 5.999537223e-08 2.360614053e-05 )
( 7.368154456e-06 2.569593789e-06 1.284022346e-07 1.190656917e-06 5.715637741e-08 2.140938705e-05 )
( 6.048594514e-06 2.241845777e-06 1.175312434e-07 9.784206441e-07 5.008112325e-08 1.789568159e-05 )
( 4.437565167e-06 1.71763395e-06 9.539496659e-08 7.293675139e-07 3.9991221e-08 1.358555983e-05 )
( 2.900063237e-06 1.151269544e-06 6.727320567e-08 4.828033298e-07 2.780048014e-08 9.344768841e-06 )
( 1.602252269e-06 6.454006325e-07 3.941910975e-08 2.678892486e-07 1.61824758e-08 5.490262993e-06 )
( 7.681443321e-07 3.118788925e-07 1.725148735e-08 1.28490683e-07 7.067078922e-09 2.726359753e-06 )
( 2.9357426e-07 1.19436308e-07 5.401143977e-09 4.89334262e-08 2.143570654e-09 1.060311433e-06 )
( 8.15113097e-08 3.326298881e-08 1.179978892e-09 1.363762969e-08 4.175034207e-10 2.915404878e-07 )
( 9.594714356e-06 2.391953331e-06 5.412682924e-08 1.765685283e-06 3.584232644e-08 2.523228068e-05 )
( 1.03255079e-05 1.894346951e-06 -1.597971355e-08 2.094820502e-06 1.622605517e-08 2.460620271e-05 )
( 1.310102198e-05 -4.936874802e-07 -2.880971124e-07 4.066544079e-06 -1.289173213e-09 2.000074346e-05 )
( 1.151969172e-05 1.038326673e-06 -1.289454588e-07 2.654065156e-06 -8.437980981e-09 2.270789082e-05 )
( 1.250549394e-05 2.013406259e-07 -2.354148592e-07 3.383130661e-06 -1.678115602e-08 2.110237256e-05 )
( 1.127000633e-05 1.212594952e-06 -1.041886861e-07 2.553603736e-06 -5.787679225e-09 2.314336234e-05 )
( 1.049211278e-05 1.791526756e-06 -2.630719642e-08 2.12828013e-06 8.158286491e-09 2.430558015e-05 )
( 1.336894002e-05 -6.892142892e-07 -3.108812621e-07 4.18027912e-06 5.660712787e-09 1.952444291e-05 )
( 1.401901227e-05 -1.6582444e-06 -3.111379954e-07 5.111935934e-06 7.192561213e-08 1.824799619e-05 )
( 1.441694985e-05 -2.424312015e-06 -2.144676898e-07 6.032694728e-06 1.421680906e-07 1.756763049e-05 )
( 8.986689863e-06 2.594556008e-06 9.978846549e-08 1.541219035e-06 5.066361553e-08 2.483508069e-05 )
( 8.309005352e-06 2.643772405e-06 1.183155547e-07 1.352609047e-06 5.572290362e-08 2.359182145e-05 )
( 7.300906873e-06 2.526448498e-06 1.228260231e-07 1.157990368e-06 5.39267937e-08 2.114527342e-05 )
( 5.949365459e-06 2.18561695e-06 1.118400803e-07 9.424772429e-07 4.71415369e-08 1.7566932e-05 )
( 4.435901246e-06 1.690206886e-06 9.074491203e-08 7.086804317e-07 3.718972152e-08 1.348810565e-05 )
( 2.851007139e-06 1.115369059e-06 6.510632033e-08 4.607916537e-07 2.643290387e-08 9.110785868e-06 )
( 1.623676553e-06 6.462468036e-07 3.71290092e-08 2.648903319e-07 1.513268089e-08 5.415985015e-06 )
( 8.029819583e-07 3.225605383e-07 1.625932278e-08 1.315811602e-07 6.551148957e-09 2.771814479e-06 )
( 3.043286654e-07 1.233921552e-07 5.094703326e-09 5.039545314e-08 1.952627837e-09 1.066612185e-06 )
( 7.56380274e-08 3.106642765e-08 1.000065808e-09 1.27927855e-08 3.908229018e-10 2.677007558e-07 )
( 9.745595889e-06 2.278211241e-06 3.776124657e-08 1.803496275e-06 2.825561118e-08 2.501062045e-05 )
( 1.162408262e-05 9.904111948e-07 -1.333478252e-07 2.642036861e-06 -1.118915893e-08 2.249512909e-05 )
( 1.104892272e-05 1.408607659e-06 -7.989620343e-08 2.335224963e-06 -1.599617661e-09 2.338888589e-05 )
( 1.297031849e-05 -1.638956064e-07 -2.773565484e-07 3.656073659e-06 -1.1063511e-08 2.029112147e-05 )
( 1.071025508e-05 1.651968319e-06 -4.5758906e-08 2.181639729e-06 1.717783249e-09 2.394094554e-05 )
( 1.0051358e-05 2.118604243e-06 1.303412667e-08 1.885073175e-06 1.977481112e-08 2.474066241e-05 )
( 1.346752379e-05 -6.457353265e-07 -3.121834311e-07 4.027731393e-06 6.125218999e-09 1.940000948e-05 )
( 1.438657364e-05 -1.9462625e-06 -3.086939557e-07 5.327191957e-06 9.478574725e-08 1.776559293e-05 )
( 1.475822228e-05 -2.693637498e-06 -1.955543638e-07 6.259743714e-06 1.615667742e-07 1.715160397e-05 )
( 9.063977814e-06 2.549576493e-06 8.932317286e-08 1.537857997e-06 4.61259333e-08 2.4756122e-05 )
( 8.266400073e-06 2.61186733e-06 1.134769079e-07 1.316926614e-06 5.301471973e-08 2.336647594e-05 )
( 7.217671282e-06 2.481800493e-06 1.180501243e-07 1.122440835e-06 5.113754398e-08 2.08358706e-05 )
( 5.971708106e-06 2.162114015e-06 1.07141318e-07 9.235415632e-07 4.392018482e-08 1.748899012e-05 )
( 4.376067409e-06 1.648490411e-06 8.889418979e-08 6.831036217e-07 3.561192941e-08 1.322942171e-05 )
( 2.871761353e-06 1.111456527e-06 6.203585912e-08 4.539546978e-07 2.499786156e-08 9.009713722e-06 )
( 1.682311904e-06 6.622343562e-07 3.454172415e-08 2.688216227e-07 1.387658433e-08 5.492724995e-06 )
( 8.248167092e-07 3.302630489e-07 1.506894698e-08 1.342824163e-07 5.900856692e-09 2.785424158e-06 )
( 3.032882887e-07 1.231823177e-07 4.477147098e-09 5.03653439e-08 1.73890613e-09 1.045397994e-06 )
( 8.007391727e-08 3.273546412e-08 7.730551754e-10 1.342032796e-08 2.893532081e-10 2.796671765e-07 )
( 1.215637894e-05 6.313368885e-07 -1.843348088e-07 2.873850462e-06 -1.88242435e-08 2.160862277e-05 )
( 1.099062501e-05 1.470156349e-06 -6.654312301e-08 2.228044195e-06 -2.333142568e-09 2.341713298e-05 )
( 1.123158654e-05 1.315671852e-06 -8.496898829e-08 2.305590215e-06 -7.574821659e-09 2.301980749e-05 )
( 1.059159513e-05 1.742284667e-06 -3.25583045e-08 2.057243819e-06 6.953287279e-09 2.399522782e-05 )
( 1.02427548e-05 1.986394409e-06 -5.822753835e-09 1.926813411e-06 1.181330855e-08 2.449518797e-05 )
( 9.487301213e-06 2.393147497e-06 5.611066101e-08 1.621880756e-06 3.415978611e-08 2.479466275e-05 )
( 1.403353963e-05 -1.102959573e-06 -3.420108499e-07 4.344916306e-06 3.261489923e-08 1.853011963e-05 )
( 1.312998938e-05 -1.221522723e-07 -2.728645825e-07 3.39863891e-06 -1.587125986e-08 2.002073052e-05 )
( 1.276983858e-05 1.445246482e-07 -2.436792386e-07 3.226989747e-06 -1.934519922e-08 2.058616155e-05 )
( 1.476658508e-05 -2.267667696e-06 -2.849761245e-07 5.651625543e-06 1.228318638e-07 1.728586903e-05 )
( 1.505224918e-05 -3.415053698e-06 -2.450016012e-08 7.204489975e-06 2.304896185e-07 1.650139529e-05 )
( 1.499084829e-05 -2.835052783e-06 -1.848411983e-07 6.380127161e-06 1.723520171e-07 1.686293217e-05 )
( 9.012536793e-06 2.542297125e-06 8.78777513e-08 1.480663968e-06 4.605296766e-08 2.456669972e-05 )
( 8.202935533e-06 2.580405635e-06 1.101433611e-07 1.28348313e-06 5.083791166e-08 2.311762e-05 )
( 7.26194412e-06 2.459726375e-06 1.128248854e-07 1.105432489e-06 4.699382572e-08 2.077337012e-05 )
( 5.906143997e-06 2.117149052e-06 1.036873343e-07 8.951421933e-07 4.129848818e-08 1.72303553e-05 )
( 4.380478458e-06 1.633319584e-06 8.359486969e-08 6.694519357e-07 3.370707091e-08 1.308550236e-05 )
( 2.951079296e-06 1.129038196e-06 5.729202002e-08 4.569541261e-07 2.29297985e-08 9.115517969e-06 )
( 1.701735414e-06 6.675329587e-07 3.207589572e-08 2.69965966e-07 1.267585148e-08 5.481464086e-06 )
( 8.260727782e-07 3.304937195e-07 1.368558333e-08 1.342158811e-07 5.342030818e-09 2.753262834e-06 )
( 3.066997749e-07 1.240141216e-07 4.22666524e-09 5.048107354e-08 1.631087598e-09 1.047718115e-06 )
( 7.999256724e-08 3.26322116e-08 5.87225546e-10 1.334964761e-08 2.14360224e-10 2.750609269e-07 )
( 1.172060001e-05 9.937998584e-07 -1.315953426e-07 2.48828087e-06 -1.572338171e-08 2.221710383e-05 )
( 1.14478762e-05 1.179388619e-06 -1.067643041e-07 2.38172629e-06 -1.145481221e-08 2.265022886e-05 )
( 1.039393101e-05 1.898265282e-06 -1.485605328e-08 1.887009262e-06 8.461847223e-09 2.406694693e-05 )
( 1.066767072e-05 1.725903758e-06 -3.628103684e-08 1.97664167e-06 2.815400801e-09 2.369573303e-05 )
( 1.007640731e-05 2.091008582e-06 6.774257155e-09 1.786566372e-06 1.764754742e-08 2.443006451e-05 )
( 9.767953998e-06 2.259107077e-06 3.309115471e-08 1.698058327e-06 2.533492705e-08 2.466832484e-05 )
( 8.984602573e-06 2.525406217e-06 8.601250556e-08 1.454233029e-06 4.458838987e-08 2.440293065e-05 )
( 1.444294503e-05 -1.399419148e-06 -3.579523025e-07 4.559629815e-06 5.859805441e-08 1.799580423e-05 )
( 1.353419339e-05 -4.269144824e-07 -3.004059295e-07 3.60938634e-06 -3.610855837e-09 1.941682058e-05 )
( 1.382941991e-05 -6.231282441e-07 -3.222705232e-07 3.73859757e-06 8.076796121e-09 1.898484879e-05 )
( 1.229479403e-05 6.249686066e-07 -1.76858066e-07 2.652933063e-06 -1.849799958e-08 2.125173705e-05 )
( 1.183327913e-05 9.349478205e-07 -1.361140392e-07 2.471269227e-06 -1.562461627e-08 2.199997652e-05 )
( 1.516386692e-05 -2.703832251e-06 -2.320043677e-07 6.135112926e-06 1.59946822e-07 1.676241664e-05 )
( 1.54544723e-05 -3.761507287e-06 -3.744556221e-09 7.612219633e-06 2.522758962e-07 1.607972445e-05 )
( 8.260907634e-06 2.559228506e-06 1.043051867e-07 1.267744551e-06 4.682596e-08 2.30479709e-05 )
( 7.202903362e-06 2.416991492e-06 1.094990409e-07 1.075218279e-06 4.457682223e-08 2.053133539e-05 )
( 5.893920388e-06 2.092257773e-06 9.893649633e-08 8.747493894e-07 3.999951304e-08 1.704659735e-05 )
( 4.47768889e-06 1.648518605e-06 7.833877902e-08 6.702197766e-07 3.126626424e-08 1.322142543e-05 )
( 2.964264468e-06 1.128667577e-06 5.285409799e-08 4.5475565e-07 2.084301798e-08 9.089364539e-06 )
( 1.708299919e-06 6.678702107e-07 2.948265099e-08 2.69176752e-07 1.147659923e-08 5.454307484e-06 )