/*--------------------------------*- C++ -*----------------------------------*\
  =========                 |
  \\      /  F ield         | OpenFOAM: The Open Source CFD Toolbox
   \\    /   O peration     | Website:  https://openfoam.org
    \\  /    A nd           | Version:  8
     \\/     M anipulation  |
\*---------------------------------------------------------------------------*/






FoamFile
{
    version     2.0;
    format      ascii;
    class       volVectorField;
    location    "0";
    object      UDDES;
}
// * * * * * * * * * * * * * * * * * * * * * * * * * * * * * * * * * * * * * //

dimensions      [0 1 -1 0 0 0 0];


internalField   nonuniform List<vector> 
24767
(
( 0.0006454149843 0.0003134131548 -7.293080671e-06 )
( 0.001381580369 0.0006678196369 -1.586244252e-05 )
( 0.0006377819227 0.0003015022376 -7.326026207e-06 )
( 0.00244563818 0.001174348872 -2.878247506e-05 )
( 0.001366282348 0.0006466842024 -1.581200922e-05 )
( 0.0006492298562 0.0003040943411 -7.381931027e-06 )
( 0.003634606721 0.00173274742 -4.436340532e-05 )
( 0.002419712022 0.001142985187 -2.850941382e-05 )
( 0.001383665716 0.000647915178 -1.589709973e-05 )
( 0.0006453722599 0.0003013200476 -7.26966482e-06 )
( 0.004900605418 0.002319718245 -6.234765897e-05 )
( 0.003595109563 0.001693652943 -4.37708004e-05 )
( 0.002442683093 0.001143352361 -2.857277104e-05 )
( 0.001376059605 0.0006426442415 -1.569852611e-05 )
( 0.0006437010597 0.0003011263325 -7.168027423e-06 )
( 0.006157733034 0.002890700474 -8.182593592e-05 )
( 0.004844655283 0.002272578655 -6.151528942e-05 )
( 0.003619115101 0.001691030222 -4.395468568e-05 )
( 0.00242649368 0.001132217702 -2.829470577e-05 )
( 0.001370660379 0.0006410469068 -1.552696449e-05 )
( 0.0006473807734 0.000301812921 -7.146566531e-06 )
( 0.007299324963 0.0033898931 -0.000100310659 )
( 0.006084637716 0.002835094929 -8.072565106e-05 )
( 0.004864714108 0.002264676616 -6.176259922e-05 )
( 0.003590162843 0.001671661739 -4.35066213e-05 )
( 0.002412931528 0.001126512536 -2.806125849e-05 )
( 0.001374827465 0.0006405796157 -1.554527807e-05 )
( 0.0006385277375 0.0002970278147 -7.111375908e-06 )
( 0.008251022547 0.003778695595 -0.0001154434867 )
( 0.007212770171 0.003327987622 -9.908721404e-05 )
( 0.006096482743 0.002819787711 -8.109876217e-05 )
( 0.004819302354 0.002234795131 -6.130160909e-05 )
( 0.003563416423 0.00165793614 -4.317067578e-05 )
( 0.002417213051 0.0011233642 -2.816056622e-05 )
( 0.001357316272 0.0006312367623 -1.536293348e-05 )
( 0.0006323618582 0.000294708123 -7.033676411e-06 )
( 0.009011667222 0.004053238314 -0.0001258325356 )
( 0.00815761555 0.003714852035 -0.0001142677866 )
( 0.007214195095 0.003304172307 -9.940955351e-05 )
( 0.006033421028 0.002778367605 -8.041151159e-05 )
( 0.00477548968 0.002209502272 -6.066603237e-05 )
( 0.003566268831 0.001650450169 -4.33409441e-05 )
( 0.00238551409 0.001106301439 -2.787151971e-05 )
( 0.001342458767 0.0006254742621 -1.520992737e-05 )
( 0.0006320360699 0.0002935636439 -7.046247447e-06 )
( 0.009612875059 0.004234281369 -0.0001302653254 )
( 0.008918085136 0.003992155194 -0.0001249678025 )
( 0.008148983121 0.00368266087 -0.0001145198912 )
( 0.007136460394 0.003252384253 -9.862013394e-05 )
( 0.005971981678 0.002740335418 -7.966454723e-05 )
( 0.004775416572 0.00219666725 -6.093947013e-05 )
( 0.003517354606 0.001623968827 -4.284613533e-05 )
( 0.002355337376 0.001093494706 -2.745751408e-05 )
( 0.001337856753 0.000621068175 -1.512413655e-05 )
( 0.0006194636808 0.0002870893222 -6.845150892e-06 )
( 0.009905862622 0.004290507175 -0.0001291737135 )
( 0.00954259187 0.004185879137 -0.0001297265408 )
( 0.00889975857 0.003952235449 -0.0001250026544 )
( 0.00806222856 0.003623720026 -0.0001135770872 )
( 0.007061133161 0.00320398598 -9.76102092e-05 )
( 0.005967750214 0.002721436555 -7.990618906e-05 )
( 0.004707326181 0.002159353113 -6.024193863e-05 )
( 0.003466756549 0.00160032697 -4.224945224e-05 )
( 0.002343798289 0.001083336654 -2.738928015e-05 )
( 0.001312360051 0.0006081773899 -1.486079873e-05 )
( 0.0006100177416 0.0002831452293 -6.753909474e-06 )
( 0.01003996283 0.004276594147 -0.0001270433277 )
( 0.01021408848 0.004381111823 -0.000126471874 )
( 0.009525045753 0.004138382617 -0.0001293130044 )
( 0.008809454739 0.003889257321 -0.0001241486461 )
( 0.007979979739 0.003569890512 -0.000112528629 )
( 0.007052443922 0.003178649116 -9.790960758e-05 )
( 0.005881720223 0.00267305132 -7.898298645e-05 )
( 0.004633474164 0.002121844329 -5.930037878e-05 )
( 0.003446147311 0.001582441386 -4.202283162e-05 )
( 0.002298056148 0.001060048235 -2.682443665e-05 )
( 0.001291049761 0.0005994284875 -1.461721695e-05 )
( 0.0006064289482 0.000280948705 -6.824775483e-06 )
( 0.01025507785 0.004266372882 -0.0001219659389 )
( 0.01031521335 0.004336502403 -0.0001219964324 )
( 0.01062089857 0.004471757915 -0.0001185643268 )
( 0.009403521195 0.004066312686 -0.0001292456291 )
( 0.008727666922 0.003835394979 -0.0001232604263 )
( 0.007967412472 0.003538062098 -0.0001127550495 )
( 0.006953723263 0.003121013287 -9.679457435e-05 )
( 0.005786598194 0.002621801803 -7.769839431e-05 )
( 0.004603201989 0.00209569768 -5.911085464e-05 )
( 0.003376953304 0.00154717546 -4.134278424e-05 )
( 0.002258131746 0.001043199678 -2.654406671e-05 )
( 0.001281509991 0.0005932672648 -1.483815777e-05 )
( 0.0005942912539 0.0002744080557 -6.758631116e-06 )
( 0.0103240246 0.004219657276 -0.0001193212447 )
( 0.009766886011 0.004139500204 -0.000128162661 )
( 0.01052399259 0.004315353464 -0.000115675808 )
( 0.01062694937 0.004400184378 -0.0001156362414 )
( 0.0111414846 0.004552573431 -0.000101139005 )
( 0.009339566343 0.004022121895 -0.0001287273772 )
( 0.008709025569 0.003796912031 -0.0001233651419 )
( 0.007863124833 0.003474405501 -0.000111615991 )
( 0.006844386924 0.003059980925 -9.5279167e-05 )
( 0.005747933406 0.002588114701 -7.742028538e-05 )
( 0.004509682767 0.002047758317 -5.805832188e-05 )
( 0.003314875532 0.001519203652 -4.079508653e-05 )
( 0.002242068062 0.001031055115 -2.675903124e-05 )
( 0.001256738906 0.0005786108668 -1.472920394e-05 )
( 0.0005722275819 0.000263677066 -6.567225682e-06 )
( 0.009866264649 0.004119442776 -0.0001261878642 )
( 0.01024382748 0.004133692477 -0.000117732372 )
( 0.01072288211 0.004280687775 -0.0001080509464 )
( 0.01082388591 0.004356780089 -0.0001068153651 )
( 0.01120512001 0.004494779743 -9.51266411e-05 )
( 0.01159206312 0.004583421629 -7.766079943e-05 )
( 0.009333962575 0.003978721332 -0.0001282915764 )
( 0.008607651107 0.003730518743 -0.0001222394494 )
( 0.007748498581 0.003409534227 -0.0001100464651 )
( 0.006800506264 0.003020366188 -9.488705837e-05 )
( 0.005634214729 0.002528715413 -7.595258649e-05 )
( 0.004425530788 0.002006558236 -5.715557563e-05 )
( 0.003295064671 0.001499989186 -4.105741027e-05 )
( 0.002202158328 0.001004377846 -2.661204053e-05 )
( 0.001212981064 0.0005559936399 -1.431199598e-05 )
( 0.0005483957357 0.000251796213 -6.402809049e-06 )
( 0.00990593154 0.004074505996 -0.000125056642 )
( 0.01079789177 0.004214843269 -0.000100146317 )
( 0.01033520699 0.004095796496 -0.000115885734 )
( 0.01102772634 0.004326211289 -9.638346819e-05 )
( 0.01128804218 0.004417469725 -8.603459719e-05 )
( 0.01177826896 0.004462993238 -5.805022738e-05 )
( 0.01230934262 0.004607348703 -3.227181151e-05 )
( 0.009201057255 0.003904473968 -0.0001277438278 )
( 0.008495494723 0.003667465644 -0.0001209630864 )
( 0.007702235598 0.003365298267 -0.000109777473 )
( 0.006674319506 0.002952544717 -9.322645928e-05 )
( 0.005532540381 0.002475075889 -7.478662883e-05 )
( 0.004406713881 0.001980845118 -5.750859418e-05 )
( 0.003243842628 0.001461548149 -4.077860649e-05 )
( 0.002129472326 0.0009652295848 -2.590217628e-05 )
( 0.001164950547 0.0005319935735 -1.397999949e-05 )
( 0.0005231233663 0.0002349968127 -6.336133993e-06 )
( 0.009487516247 0.003960235044 -0.0001275641553 )
( 0.01005443186 0.004039266612 -0.0001210798073 )
( 0.01126639452 0.004284078255 -7.925399404e-05 )
( 0.0108537944 0.004166307393 -9.56007425e-05 )
( 0.01043481287 0.004042685963 -0.0001094199833 )
( 0.01137464121 0.004368213005 -7.87377212e-05 )
( 0.01186740398 0.004377034493 -4.58099712e-05 )
( 0.01237767003 0.004524543881 -2.148125714e-05 )
( 0.01279045083 0.004600665532 5.884739949e-07 )
( 0.00911922846 0.003854810959 -0.0001269058848 )
( 0.008447026834 0.003619128838 -0.000120625984 )
( 0.007572451606 0.003292961279 -0.0001080492366 )
( 0.006564119831 0.002890766365 -9.154506552e-05 )
( 0.00552036427 0.002445179736 -7.507559349e-05 )
( 0.004350597505 0.001933446852 -5.711375707e-05 )
( 0.003144650487 0.001405981602 -3.974556239e-05 )
( 0.002051708288 0.0009239955107 -2.524298361e-05 )
( 0.001119805034 0.0004987041466 -1.377193348e-05 )
( 0.0005004489794 0.0002135259565 -6.093852789e-06 )
( 0.009696977213 0.00396202039 -0.0001252320217 )
( 0.01022041589 0.004014479928 -0.0001164746791 )
( 0.01139681786 0.00414605299 -6.169188418e-05 )
( 0.01091912482 0.004114015959 -8.845246339e-05 )
( 0.0105986651 0.004010797478 -9.973513079e-05 )
( 0.01192138251 0.004217753187 -2.927534297e-05 )
( 0.01238671504 0.004409482237 -1.194174001e-05 )
( 0.01292423625 0.004318576772 2.525752825e-05 )
( 0.009078579955 0.003801696701 -0.0001262960432 )
( 0.00831996277 0.003544960637 -0.0001192543277 )
( 0.007461478934 0.003228427609 -0.0001065713441 )
( 0.006560190115 0.002858727938 -9.220908396e-05 )
( 0.005465091206 0.00239278283 -7.499662752e-05 )
( 0.004230401479 0.001864174614 -5.590428191e-05 )
( 0.003041340737 0.001348442631 -3.878646748e-05 )
( 0.001987383934 0.0008739844197 -2.504445911e-05 )
( 0.001080325106 0.0004613823839 -1.338847505e-05 )
( 0.0005033302587 0.0002100621932 -6.086472695e-06 )
( 0.009821946733 0.003934299108 -0.0001225689775 )
( 0.01030827779 0.003969099373 -0.0001114179322 )
( 0.01165759098 0.004043246154 -3.626730904e-05 )
( 0.01097827964 0.004065080546 -8.215015987e-05 )
( 0.01088502165 0.003965879325 -8.167909982e-05 )
( 0.01217864547 0.004052608274 -1.646716328e-07 )
( 0.01232619397 0.004252886865 -3.732948016e-06 )
( 0.01308403444 0.004078967031 4.551944221e-05 )
( 0.008926442824 0.003719893517 -0.0001256202813 )
( 0.008216164075 0.003482415341 -0.0001178598759 )
( 0.007465019356 0.003194721881 -0.0001069996797 )
( 0.00650975341 0.002804244868 -9.202449291e-05 )
( 0.005332289729 0.002314494923 -7.33701454e-05 )
( 0.004109003581 0.001793797826 -5.449288074e-05 )
( 0.002969534136 0.001287617139 -3.838001794e-05 )
( 0.001928939135 0.0008192766691 -2.437833245e-05 )
( 0.001082676696 0.0004525354889 -1.317645274e-05 )
( 0.0005136961699 0.0002124099265 -6.171150744e-06 )
( 0.00929030031 0.003791592084 -0.0001260124409 )
( 0.009919639677 0.00389544433 -0.0001190039329 )
( 0.01046574209 0.003920112737 -0.0001017468603 )
( 0.01172209531 0.003943695221 -2.42897022e-05 )
( 0.01102018077 0.003835088108 -6.539159949e-05 )
( 0.01050612051 0.003861509962 -9.74839204e-05 )
( 0.01233049855 0.003791089403 2.62308422e-05 )
( 0.0130880652 0.003828838002 5.633877299e-05 )
( 0.008852222934 0.003670398844 -0.0001248025801 )
( 0.008223320358 0.003446243936 -0.0001182040287 )
( 0.007419322152 0.003138747765 -0.0001068782803 )
( 0.006372388452 0.002721732482 -9.029095236e-05 )
( 0.005201153457 0.002236356493 -7.160539826e-05 )
( 0.004039681517 0.00172945566 -5.396371489e-05 )
( 0.002895853715 0.001223247149 -3.760349136e-05 )
( 0.00192714436 0.0008056003135 -2.398007382e-05 )
( 0.001106396317 0.0004578014778 -1.319601324e-05 )
( 0.0005195727572 0.000214073807 -5.869220786e-06 )
( 0.00943260733 0.003783094697 -0.0001245866151 )
( 0.009987434372 0.003848209511 -0.0001152424156 )
( 0.01178686507 0.003796947189 -1.017206341e-05 )
( 0.01056182384 0.003724591574 -8.715237345e-05 )
( 0.01122109313 0.003742380068 -4.63196593e-05 )
( 0.01048026234 0.003775783116 -9.349353786e-05 )
( 0.01000431925 0.003784861881 -0.0001137669678 )
( 0.01182196476 0.003679799149 3.027394087e-07 )
( 0.01245940104 0.003561176127 4.54018882e-05 )
( 0.01311820839 0.003630985739 6.33230884e-05 )
( 0.008867594413 0.003629431827 -0.0001244732848 )
( 0.008181130514 0.003389436752 -0.0001179081519 )
( 0.007283422165 0.003055819776 -0.0001051836807 )
( 0.00623905845 0.002641092287 -8.837432688e-05 )
( 0.00513993809 0.00217369548 -7.105946133e-05 )
( 0.003953363746 0.001660281327 -5.300525299e-05 )
( 0.00287949224 0.001202052459 -3.692820974e-05 )
( 0.001948753372 0.0008061730769 -2.406054045e-05 )
( 0.001106374315 0.0004559172085 -1.287034593e-05 )
( 0.0005079916446 0.0002098901896 -5.994593721e-06 )
( 0.009469178505 0.003736304818 -0.0001227879693 )
( 0.0104882326 0.003632184118 -8.570119826e-05 )
( 0.01018020511 0.003663773183 -0.0001025011006 )
( 0.01138376817 0.003622739343 -2.744554149e-05 )
( 0.01003304124 0.00371221453 -0.0001102706447 )
( 0.009603654966 0.003708685515 -0.0001204177679 )
( 0.01161737554 0.003484670306 -2.628551556e-06 )
( 0.01252269559 0.003334725741 5.71842611e-05 )
( 0.01314673852 0.003373560961 6.866525655e-05 )
( 0.008832655847 0.003574526869 -0.0001238426048 )
( 0.008049812168 0.003307262901 -0.000116321753 )
( 0.007153953891 0.002976934426 -0.0001031381616 )
( 0.006186699495 0.002581712324 -8.794058522e-05 )
( 0.005042524543 0.002101666527 -7.009434194e-05 )
( 0.003923950251 0.001631923486 -5.210450763e-05 )
( 0.002901284955 0.001198089914 -3.705235576e-05 )
( 0.001948122052 0.000801959075 -2.348716771e-05 )
( 0.001093623345 0.000451599306 -1.27821686e-05 )
( 0.0005144648021 0.0002117532276 -5.979740763e-06 )
( 0.01066123042 0.003525034292 -6.95212002e-05 )
( 0.01001191698 0.003576484742 -0.0001048385166 )
( 0.01009265147 0.003532201052 -0.0001005040394 )
( 0.009821062908 0.003612335306 -0.0001129653247 )
( 0.009658019058 0.00365197612 -0.0001189780596 )
( 0.009055543691 0.003562560771 -0.0001235410018 )
( 0.01177080814 0.003238198813 2.142806807e-05 )
( 0.01105787326 0.003339767456 -3.395009117e-05 )
( 0.01094187424 0.003425744828 -4.670877024e-05 )
( 0.01265735086 0.003115609288 6.728694279e-05 )
( 0.0137376152 0.003317948198 6.732651673e-05 )
( 0.01314987615 0.0031768349 7.302398444e-05 )
( 0.008677849546 0.003487949725 -0.0001230645139 )
( 0.007928627543 0.003233644646 -0.000114896131 )
( 0.007108182181 0.002920004772 -0.0001031638167 )
( 0.006080509163 0.002507508732 -8.693266136e-05 )
( 0.00499225501 0.002062098356 -6.85355626e-05 )
( 0.003940898925 0.001620970434 -5.189834701e-05 )
( 0.002882781206 0.001183910412 -3.628990089e-05 )
( 0.001924910699 0.0007931355503 -2.33282899e-05 )
( 0.001088661142 0.0004475454334 -1.301941757e-05 )
( 0.0005071937921 0.0002081752464 -5.949540991e-06 )
( 0.01025840081 0.003436091123 -8.802836237e-05 )
( 0.01014990639 0.003478713799 -9.515471174e-05 )
( 0.009507851675 0.003488253802 -0.0001158466912 )
( 0.009635895491 0.003459547181 -0.0001130303717 )
( 0.009366214275 0.003522121347 -0.0001194253855 )
( 0.009210509248 0.003549102461 -0.0001220013291 )
( 0.008588744327 0.003430313198 -0.0001220191771 )
( 0.01186679676 0.003021047683 3.74699448e-05 )
( 0.01117771305 0.003213971853 -1.840013283e-05 )
( 0.01125662029 0.00312096253 -7.22022196e-06 )
( 0.01030470617 0.003221780062 -7.428800745e-05 )
( 0.01017267071 0.003333649365 -8.674334822e-05 )
( 0.01289995387 0.002867905656 7.490907592e-05 )
( 0.01382427197 0.002923846245 7.104799442e-05 )
( 0.00788531173 0.003177305683 -0.0001143951376 )
( 0.006997475866 0.002844753908 -0.0001017525938 )
( 0.006010605488 0.002457323484 -8.510278712e-05 )
( 0.005007727072 0.002045590896 -6.85298146e-05 )
( 0.003907188307 0.001597483526 -5.115608656e-05 )
( 0.002855684375 0.00117191812 -3.586367529e-05 )
( 0.001922428608 0.0007875825977 -2.348666749e-05 )
( 0.001075066742 0.000440768752 -1.286793213e-05 )
( 0.0004998478107 0.0002057003294 -5.896240964e-06 )
( 0.009943228215 0.003392668907 -0.000100087942 )
( 0.009781227447 0.003429167904 -0.0001077228953 )
( 0.008994393982 0.003368588164 -0.0001205711742 )
( 0.009183299728 0.003354119137 -0.0001187974121 )
( 0.008807489648 0.003369770013 -0.0001215569719 )
( 0.008556322195 0.003370465711 -0.0001214353761 )
( 0.01214065123 0.002819444519 5.790125215e-05 )
( 0.01138461567 0.002919290448 1.252308812e-05 )
( 0.01129077934 0.0030137836 3.466097951e-07 )
( 0.01046288572 0.003114979481 -5.971503924e-05 )
( 0.01070870087 0.00305048353 -4.25459657e-05 )
( 0.009779287502 0.00310332817 -9.532397235e-05 )
( 0.009765469469 0.003176400671 -9.858381964e-05 )
( 0.009650122374 0.003252561204 -0.00010555677 )
( 0.009719944559 0.003225299064 -0.0001026323953 )
( 0.01224506181 0.002658837242 6.803194265e-05 )
( 0.01301797293 0.002475784859 8.40052453e-05 )
( 0.01384877227 0.002571298974 7.569841546e-05 )
( 0.007773672696 0.003101808485 -0.000113374801 )
( 0.00691366801 0.002787551377 -9.999840404e-05 )
( 0.006018482149 0.00243318337 -8.495050133e-05 )
( 0.00495427195 0.002010405762 -6.746522558e-05 )
( 0.003863265272 0.001575229689 -5.036097355e-05 )
( 0.002850720193 0.001161755878 -3.594220107e-05 )
( 0.001889190869 0.0007716339896 -2.313189179e-05 )
( 0.001058504917 0.0004352756951 -1.268687447e-05 )
( 0.0004961600062 0.0002037759114 -5.875534043e-06 )
( 0.009511989541 0.003300111508 -0.0001108774522 )
( 0.009318039753 0.003329044906 -0.0001169873212 )
( 0.008340096101 0.003194823395 -0.000118893382 )
( 0.008633065037 0.003209942719 -0.000120121731 )
( 0.008343113586 0.003238622565 -0.0001194156575 )
( 0.008413694799 0.003286999185 -0.0001203505017 )
( 0.0112565998 0.002741901204 1.029240048e-05 )
( 0.01102263667 0.002882098313 -1.217827867e-05 )
( 0.01084809471 0.002972930204 -2.853369369e-05 )
( 0.00986178685 0.00303801056 -8.794642781e-05 )
( 0.009972395375 0.003001104575 -8.218595758e-05 )
( 0.009931054898 0.002910606097 -8.008226723e-05 )
( 0.009281502105 0.003019811586 -0.0001103068353 )
( 0.009266966954 0.003095456399 -0.0001120993911 )
( 0.009150898084 0.003162805457 -0.0001150780154 )
( 0.009249670431 0.003140197601 -0.000112554706 )
( 0.01142741553 0.002518912777 2.993535782e-05 )
( 0.01235687733 0.002456584014 7.718535926e-05 )
( 0.0124375904 0.002309228061 8.354290912e-05 )
( 0.01312551182 0.002137056319 8.993552183e-05 )
( 0.01388668083 0.002238201909 7.907898544e-05 )
( 0.00768414652 0.00304271793 -0.0001115117484 )
( 0.006913870573 0.002756286412 -9.990410763e-05 )
( 0.005950634368 0.002388139255 -8.411627641e-05 )
( 0.004892126191 0.001976122381 -6.659649807e-05 )
( 0.003858120646 0.001560736448 -5.05511307e-05 )
( 0.002804881195 0.001139207976 -3.555795411e-05 )
( 0.001867635641 0.0007647526218 -2.288292308e-05 )
( 0.001056753914 0.0004332281824 -1.270414577e-05 )
( 0.0004887516843 0.0001997464715 -5.726538802e-06 )
( 0.008997224271 0.0031875032 -0.0001179255705 )
( 0.008817062713 0.003206140595 -0.0001194919168 )
( 0.007676230278 0.003005537204 -0.0001115978521 )
( 0.008227312006 0.003127715783 -0.000118147138 )
( 0.00816032663 0.003082865616 -0.0001176133155 )
( 0.01057493687 0.002647677669 -3.173136065e-05 )
( 0.01068002172 0.002574035665 -2.141271216e-05 )
( 0.0103349695 0.002736370545 -4.993406037e-05 )
( 0.01013118867 0.00282949768 -6.610433047e-05 )
( 0.009360618889 0.002951232949 -0.0001057177869 )
( 0.009573729709 0.002932741074 -9.696601774e-05 )
( 0.009538942948 0.002799771493 -9.358461102e-05 )
( 0.009462107904 0.002841973677 -9.753798076e-05 )
( 0.008978665806 0.002941557439 -0.0001142929541 )
( 0.008885383606 0.003002693178 -0.0001159948733 )
( 0.008642947301 0.003045207122 -0.0001185095098 )
( 0.008733149618 0.003012863919 -0.0001169398383 )
( 0.01088452339 0.00240251678 -1.672834742e-06 )
( 0.01152382884 0.00235136901 4.160891331e-05 )
( 0.0107960375 0.002462907229 -9.372019122e-06 )
( 0.01177526917 0.002186220605 6.179546472e-05 )
( 0.01253174897 0.002115109237 8.924552094e-05 )
( 0.01258723438 0.001963115297 9.260658408e-05 )
( 0.01317301858 0.001829987275 9.196557949e-05 )
( 0.01393702626 0.001935771201 8.093766519e-05 )
( 0.00683567347 0.002703356789 -9.876203694e-05 )
( 0.005873441696 0.002343100263 -8.274323773e-05 )
( 0.004882420879 0.001955339452 -6.667024718e-05 )
( 0.003789218608 0.001527048415 -4.973848991e-05 )
( 0.002762021963 0.001123307273 -3.492916221e-05 )
( 0.001865251455 0.000760065217 -2.2934968e-05 )
( 0.00104183238 0.000424237136 -1.257120311e-05 )
( 0.0004725319741 0.0001926948462 -5.51553876e-06 )
( 0.008440211415 0.003041965654 -0.0001186671434 )
( 0.008149859495 0.003036641516 -0.0001171929252 )
( 0.007592618 0.002947409637 -0.0001106443378 )
( 0.007504237816 0.002892895835 -0.0001093842802 )
( 0.009664296173 0.002509732032 -7.571322203e-05 )
( 0.009859457612 0.002429304179 -6.232468149e-05 )
( 0.009754309431 0.002602090826 -7.598346565e-05 )
( 0.009658847004 0.002639870392 -8.082111162e-05 )
( 0.009583016858 0.002753975336 -8.889893797e-05 )
( 0.009568210691 0.002690515714 -8.608212374e-05 )
( 0.009104667231 0.002906863578 -0.0001106855343 )
( 0.009249955416 0.002878055442 -0.0001064926764 )
( 0.009026412852 0.002714466071 -0.0001060821305 )
( 0.008919931948 0.002748746891 -0.0001083096722 )
( 0.008488209918 0.002833289094 -0.0001154562051 )
( 0.008312736638 0.002844272181 -0.0001163069755 )
( 0.008035315201 0.002892360557 -0.0001157741135 )
( 0.008043672889 0.002849773038 -0.0001153926059 )
( 0.01092105173 0.002319726627 4.23404208e-06 )
( 0.01027539838 0.002290299861 -3.452221426e-05 )
( 0.01100950688 0.002229536651 1.464254274e-05 )
( 0.01001515985 0.002338420134 -5.010447421e-05 )
( 0.01087385602 0.002050428651 1.25405104e-05 )
( 0.01190256886 0.002026353497 7.204591384e-05 )
( 0.0121030407 0.001868115272 8.215189155e-05 )
( 0.01266556792 0.0017846314 9.514656267e-05 )
( 0.01268116012 0.001699449145 9.549537208e-05 )
( 0.01328741573 0.001570795663 9.400565614e-05 )
( 0.01399440039 0.001667184988 8.143544983e-05 )
( 0.006749324035 0.002651231829 -9.746088472e-05 )
( 0.00585962506 0.002316068392 -8.263268683e-05 )
( 0.004805627279 0.001915621338 -6.569037942e-05 )
( 0.003735336475 0.001504049404 -4.913532393e-05 )
( 0.002769331215 0.001117921202 -3.527403896e-05 )
( 0.001841954654 0.0007434841827 -2.27180135e-05 )
( 0.001009532134 0.0004097288765 -1.208412232e-05 )
( 0.0004580560781 0.0001870989508 -5.446921932e-06 )
( 0.008026165888 0.002964987885 -0.0001162533663 )
( 0.007977477275 0.002923956839 -0.0001155979626 )
( 0.007484472357 0.002854488092 -0.000109216242 )
( 0.009149069898 0.00243061455 -9.319921082e-05 )
( 0.009304091334 0.002524944488 -9.201123612e-05 )
( 0.009220913984 0.002398465993 -9.087844956e-05 )
( 0.009258201346 0.0022964417 -8.355274622e-05 )
( 0.009259257466 0.002358643571 -8.717236051e-05 )
( 0.009085917845 0.00253894343 -9.996480367e-05 )
( 0.009044604376 0.002664661501 -0.0001041304859 )
( 0.009018551558 0.00260430621 -0.0001036476315 )
( 0.008661417291 0.002812387887 -0.0001138927473 )
( 0.00880483631 0.002782271709 -0.0001112969912 )
( 0.008520987816 0.002607475035 -0.0001113569451 )
( 0.008322218433 0.002618188504 -0.0001123626062 )
( 0.007768879645 0.002659992781 -0.0001118047512 )
( 0.007896432653 0.002769465325 -0.0001141541507 )
( 0.007805544883 0.002716596471 -0.0001127909491 )
( 0.007359520067 0.002719378332 -0.000107573047 )
( 0.007353229448 0.002673598239 -0.0001073394524 )
( 0.01042932272 0.002246125834 -2.344095083e-05 )
( 0.009407050908 0.002126015257 -7.076119073e-05 )
( 0.01060723327 0.002153656445 -7.747997188e-06 )
( 0.009349898435 0.002243733965 -7.724441093e-05 )
( 0.009460591711 0.002208833583 -7.192805788e-05 )
( 0.01108851936 0.001871035201 3.068057413e-05 )
( 0.01026573684 0.001875703339 -1.85492845e-05 )
( 0.01014065556 0.001932071988 -2.744358062e-05 )
( 0.01129943226 0.001726465998 4.569138764e-05 )
( 0.01229188405 0.00173188583 8.937323582e-05 )
( 0.01242973283 0.001641327864 9.329945897e-05 )
( 0.01278991997 0.001541387639 9.785266593e-05 )
( 0.01285043731 0.001460158732 9.776463412e-05 )
( 0.01349666622 0.00135908823 9.419662092e-05 )
( 0.01405439153 0.001428510179 8.138384874e-05 )
( 0.006732633803 0.002618348459 -9.722434334e-05 )
( 0.005770885386 0.00226782565 -8.146389882e-05 )
( 0.004731201567 0.001879820251 -6.466962077e-05 )
( 0.003741690889 0.001491817064 -4.944646207e-05 )
( 0.002740661381 0.001093472587 -3.511886462e-05 )
( 0.001787181245 0.0007181486581 -2.20675629e-05 )
( 0.0009787970921 0.0003977189481 -1.184537268e-05 )
( 0.0004471253487 0.0001815057331 -5.433887054e-06 )
( 0.007389436476 0.002794840839 -0.0001078264686 )
( 0.007316048723 0.002744689584 -0.0001066879558 )
( 0.008949799463 0.002464486752 -0.0001017255126 )
( 0.008572719991 0.002335882979 -0.0001029071063 )
( 0.008665963076 0.002301398898 -0.0001010462875 )
( 0.008698573336 0.00219799648 -9.777877858e-05 )
( 0.008701375686 0.002262093127 -9.983484051e-05 )
( 0.008817978203 0.002494114218 -0.0001052691805 )
( 0.008658479899 0.002583847381 -0.0001100388617 )
( 0.008708746172 0.002531562466 -0.0001080204383 )
( 0.008050369099 0.002655906603 -0.0001132139078 )
( 0.00824495405 0.002655737102 -0.0001132756734 )
( 0.007915708236 0.002462104661 -0.0001100074223 )
( 0.007581739221 0.002450480592 -0.0001080630391 )
( 0.007613416761 0.00257822359 -0.0001100126974 )
( 0.007058387157 0.002480814001 -0.0001028475017 )
( 0.007231966592 0.002600182313 -0.0001055512985 )
( 0.007109332364 0.002533972263 -0.0001035351888 )
( 0.006592906546 0.002492657863 -9.555751603e-05 )
( 0.006580051966 0.002448984887 -9.563173808e-05 )
( 0.009632647038 0.002072690753 -5.907698505e-05 )
( 0.008963285945 0.00201892294 -8.45040413e-05 )
( 0.008881120943 0.002045792527 -8.700676699e-05 )
( 0.009017893113 0.002131481189 -8.582360897e-05 )
( 0.00985578727 0.001995316241 -4.476240429e-05 )
( 0.008787984028 0.002143742051 -9.346128354e-05 )
( 0.01040182356 0.001789573114 -8.010305464e-06 )
( 0.01051035244 0.001732078614 -4.411276677e-07 )
( 0.009332831018 0.001708055614 -5.431293539e-05 )
( 0.009113769047 0.001769329887 -6.595237937e-05 )
( 0.01148281619 0.001601614174 5.567382323e-05 )
( 0.0107606668 0.001606066944 1.543868348e-05 )
( 0.01065703388 0.001649162266 9.42036786e-06 )
( 0.01163297147 0.001492733601 6.51654409e-05 )
( 0.01254460402 0.001507396228 9.649207641e-05 )
( 0.01276343595 0.001273626694 9.784701251e-05 )
( 0.01262150798 0.001407840638 9.678956121e-05 )
( 0.01358793397 0.001155095757 9.443234012e-05 )
( 0.0141143566 0.001216608332 8.124763553e-05 )
( 0.006637826562 0.002563498449 -9.586113447e-05 )
( 0.005692027509 0.00222494686 -8.013391198e-05 )
( 0.004749370273 0.001864667051 -6.520219904e-05 )
( 0.003716100007 0.001462129876 -4.933079617e-05 )
( 0.00266290782 0.001056224573 -3.399130946e-05 )
( 0.001732862089 0.0006957728183 -2.139981007e-05 )
( 0.0009538630256 0.0003842177684 -1.170922405e-05 )
( 0.0004214468063 0.0001694446546 -5.247191893e-06 )
( 0.006557448767 0.002515426371 -9.476332343e-05 )
( 0.008471939713 0.002370028989 -0.0001055529356 )
( 0.007933591492 0.002204770688 -0.0001051584404 )
( 0.008116941899 0.002191613894 -0.0001043757511 )
( 0.008368594572 0.002121094149 -0.0001008406398 )
( 0.008257628419 0.002166560851 -0.0001029593695 )
( 0.008341903798 0.002402685583 -0.0001078185742 )
( 0.008118782192 0.002462314907 -0.0001104339462 )
( 0.008182279766 0.002420045203 -0.0001090370715 )
( 0.007544287015 0.002529316116 -0.000108578286 )
( 0.007584225386 0.00249143946 -0.000108582899 )
( 0.007453675848 0.002381650498 -0.0001063827367 )
( 0.00740001956 0.002338889521 -0.0001052226289 )
( 0.00685295416 0.002266425639 -9.847257752e-05 )
( 0.006928903516 0.002406075131 -0.0001006926977 )
( 0.006271677557 0.002255748957 -9.061358287e-05 )
( 0.006455535069 0.002377789468 -9.351369954e-05 )
( 0.006326967385 0.002309466247 -9.130770195e-05 )
( 0.005716863088 0.002204997232 -8.104098379e-05 )
( 0.005697004031 0.002164637437 -8.103007713e-05 )
( 0.009014472365 0.001984697534 -8.083142166e-05 )
( 0.008994090371 0.001928109792 -7.816861034e-05 )
( 0.008376663551 0.001916661509 -9.311574104e-05 )
( 0.008651556447 0.00207266002 -9.450668585e-05 )
( 0.008266123943 0.001947063021 -9.516499267e-05 )
( 0.009211173281 0.001851636567 -6.744893471e-05 )
( 0.009100005031 0.00188087835 -7.24887941e-05 )
( 0.008533780463 0.002100782935 -9.821285494e-05 )
( 0.00949243363 0.001640194329 -4.470003842e-05 )
( 0.00964209158 0.00157253712 -3.611042121e-05 )
( 0.008625897579 0.001568029751 -7.085496327e-05 )
( 0.008647055365 0.001627599355 -7.432833081e-05 )
( 0.008539104834 0.001684199553 -8.032745245e-05 )
( 0.008707248606 0.001765299821 -7.967636338e-05 )
( 0.008607142605 0.0016616832 -7.804165944e-05 )
( 0.01080783457 0.001547618653 1.914428503e-05 )
( 0.0107719386 0.001456300961 2.062244494e-05 )
( 0.01009980123 0.001487381873 -1.502553459e-05 )
( 0.009944733232 0.001536682597 -2.279938781e-05 )
( 0.01179870777 0.001366112847 7.345611812e-05 )
( 0.01098680682 0.001333357999 3.454405305e-05 )
( 0.0108774323 0.001380642643 2.783336095e-05 )
( 0.0129154399 0.00105353957 9.996993322e-05 )
( 0.01223994233 0.00109843316 9.029905777e-05 )
( 0.0121400822 0.001177787781 8.731523849e-05 )
( 0.01204513106 0.001298355754 8.356684702e-05 )
( 0.01367472485 0.0009743003175 9.430840146e-05 )
( 0.01416994445 0.001028430765 8.12817816e-05 )
( 0.004723054823 0.001828202978 -6.524001947e-05 )
( 0.003617158625 0.001412823214 -4.805707795e-05 )
( 0.002583423397 0.001021212898 -3.314264177e-05 )
( 0.001690388541 0.0006707285065 -2.118087286e-05 )
( 0.0009035719559 0.0003601336794 -1.132854686e-05 )
( 0.0003912809188 0.0001542317768 -5.118991339e-06 )
( 0.007877376862 0.002245075302 -0.000106335996 )
( 0.007151006721 0.002039126586 -9.993560525e-05 )
( 0.007439123001 0.002039822517 -0.0001014084773 )
( 0.007858162746 0.002019077307 -0.000101169222 )
( 0.00764312502 0.002035606652 -0.000101497928 )
( 0.007690066006 0.002246556804 -0.0001061064395 )
( 0.007444195449 0.002300623572 -0.0001053965971 )
( 0.00741896173 0.002253570361 -0.0001046612597 )
( 0.006828169804 0.002342881169 -9.860016144e-05 )
( 0.006857645698 0.002308710245 -9.865817265e-05 )
( 0.006753576919 0.002207327867 -9.702760144e-05 )
( 0.006677044556 0.002156569157 -9.541377949e-05 )
( 0.006048243493 0.002039016457 -8.588210039e-05 )