/*--------------------------------*- C++ -*----------------------------------*\
  =========                 |
  \\      /  F ield         | OpenFOAM: The Open Source CFD Toolbox
   \\    /   O peration     | Website:  https://openfoam.org
    \\  /    A nd           | Version:  8
     \\/     M anipulation  |
\*---------------------------------------------------------------------------*/






FoamFile
{
    version     2.0;
    format      ascii;
    class       volScalarField;
    location    "0";
    object      V;
}
// * * * * * * * * * * * * * * * * * * * * * * * * * * * * * * * * * * * * * //

dimensions      [0 3 0 0 0 0 0];


internalField   nonuniform List<scalar> 
24767
(
2.247473346e-06
2.712340976e-06
2.271287727e-06
3.272811868e-06
2.719605434e-06
2.426168023e-06
3.948288968e-06
3.251530321e-06
2.955070072e-06
2.24678632e-06
4.761964551e-06
3.880320147e-06
3.604292437e-06
2.709443073e-06
2.27129329e-06
5.741560727e-06
4.620190925e-06
4.403412209e-06
3.266674856e-06
2.717515428e-06
2.428802576e-06
6.920074886e-06
5.485691714e-06
5.390263046e-06
3.937469097e-06
3.246251777e-06
2.955318908e-06
2.235378542e-06
8.336671635e-06
6.490577625e-06
6.613573654e-06
4.744503827e-06
3.870306142e-06
3.600528157e-06
2.693496306e-06
2.276038871e-06
1.003762869e-05
7.645941183e-06
8.136613687e-06
5.714737166e-06
4.603267653e-06
4.393210806e-06
3.244704157e-06
2.71971402e-06
2.444337856e-06
1.207740717e-05
8.957178482e-06
1.004226505e-05
6.88011077e-06
5.458784133e-06
5.370018054e-06
3.907545723e-06
3.244423775e-06
2.969189682e-06
2.267540324e-06
1.296698337e-05
1.041919463e-05
1.244008008e-05
8.278354245e-06
6.449350152e-06
6.577925276e-06
4.704086561e-06
3.86238082e-06
3.610594826e-06
2.726487629e-06
2.34194733e-06
2.132418871e-05
2.592974684e-05
1.547616091e-05
9.95374945e-06
7.584316054e-06
8.077636696e-06
5.660484969e-06
4.586359866e-06
4.396152434e-06
3.276277627e-06
2.793061781e-06
2.4900287e-06
2.618088106e-05
2.417336232e-05
2.643259397e-05
1.195793666e-05
8.866598745e-06
9.94829412e-06
6.807638287e-06
5.428889432e-06
5.360755719e-06
3.933945072e-06
3.323639214e-06
3.023727088e-06
2.513401075e-06
2.44668016e-05
1.298764293e-05
2.633471577e-05
2.777587369e-05
2.847652545e-05
1.028762366e-05
1.229393735e-05
8.181868426e-06
6.400952673e-06
6.548767039e-06
4.719251167e-06
3.944119696e-06
3.672835841e-06
3.091567877e-06
2.297793162e-06
2.123828459e-05
2.63330385e-05
2.965452043e-05
2.861781129e-05
3.06531173e-05
9.664740241e-05
1.525259546e-05
9.825606811e-06
7.509833295e-06
8.017077965e-06
5.654923049e-06
4.66441044e-06
4.462760919e-06
3.810029787e-06
2.790396077e-06
2.31765859e-06
2.563320343e-05
2.855024298e-05
2.763963077e-05
2.944529479e-05
3.222109052e-05
9.912574307e-05
9.644731675e-05
1.178797722e-05
8.755624511e-06
9.839181003e-06
6.766731343e-06
5.492621567e-06
5.424712144e-06
4.70618461e-06
3.388421654e-06
2.790799887e-06
2.45663849e-06
1.275625768e-05
2.382643194e-05
9.654769812e-05
3.085587452e-05
2.846805653e-05
3.140989771e-05
9.751471311e-05
0.0001046523951
0.0003166953371
1.012589807e-05
1.211080014e-05
8.083375591e-06
6.432942335e-06
6.597138919e-06
5.828881536e-06
4.114328193e-06
3.355409032e-06
3.008216955e-06
2.244735422e-06
2.085360552e-05
2.591175033e-05
0.0001043397527
3.212366921e-05
2.931302522e-05
0.0001011755454
0.0001091495347
0.0003207430166
1.495776668e-05
9.636009907e-06
7.482317894e-06
8.027510051e-06
7.242497073e-06
4.995315238e-06
4.026659351e-06
3.688624466e-06
2.720811075e-06
2.264200527e-06
2.509871786e-05
2.92508026e-05
9.551862058e-05
3.143184394e-05
9.559629936e-05
0.0003157110706
0.000105066131
0.0003283581521
1.145721366e-05
8.625310654e-06
9.774649149e-06
9.032673589e-06
6.064288749e-06
4.820951226e-06
4.530243668e-06
3.297119426e-06
2.720457908e-06
2.418869453e-06
1.246482779e-05
2.35937968e-05
2.81851499e-05
0.0001035173109
9.804464525e-05
3.056809568e-05
0.0003170059764
0.0003212833032
9.826247717e-06
1.191174114e-05
1.131448048e-05
7.361017393e-06
5.755220605e-06
5.574651627e-06
3.994379475e-06
3.263298801e-06
2.954146609e-06
2.23528809e-06
1.846720668e-05
2.611255735e-05
0.0001068603463
3.14269264e-05
9.584127875e-05
3.232982479e-05
2.808360563e-05
0.0001019200665
0.0003048612673
0.0003302341853
1.453023005e-05
1.424401958e-05
8.93353037e-06
6.84565743e-06
6.875597716e-06
4.837443015e-06
3.906552743e-06
3.612462276e-06
2.701456818e-06
2.296542942e-06
2.430984357e-05
9.560410065e-05
2.955076233e-05
9.882917755e-05
2.951951567e-05
2.840893448e-05
0.0003077442124
0.0003205329326
0.0003399724461
1.803511296e-05
1.083973185e-05
8.105549774e-06
8.503189272e-06
5.855970517e-06
4.664911343e-06
4.424196343e-06
3.263788664e-06
2.750715498e-06
2.458037398e-06
0.0001019456225
2.92021426e-05
3.05746219e-05
2.987162595e-05
2.632719735e-05
1.447352474e-05
0.0003041756928
0.0001014288805
9.274125646e-05
0.0003178674463
0.0009757883062
0.0003232227624
1.314930264e-05
9.541629238e-06
1.054972948e-05
7.085304339e-06
5.553172552e-06
5.428150146e-06
3.941605928e-06
3.288488477e-06
2.990813336e-06
2.262242283e-06
3.073819072e-05
3.162339459e-05
2.594753657e-05
2.737667145e-05
2.812414044e-05
2.360558906e-05
1.114830327e-05
0.0003357414216
0.0001071700034
0.0001095916017
9.235391562e-05
9.221351785e-05
0.0009638533309
0.0009388206712
1.313783933e-05
8.567274274e-06
6.584836652e-06
6.674262655e-06
4.757871912e-06
3.922235591e-06
3.642060511e-06
2.724654014e-06
2.327988491e-06
2.853154309e-05
2.852904493e-05
2.254873602e-05
2.689166206e-05
1.39533722e-05
1.643200444e-05
0.0003037658162
0.0001054944038
0.000109020016
9.987184666e-05
9.718759974e-05
3.198156436e-05
3.0797191e-05
2.738414377e-05
2.89321581e-05
0.0003268768083
0.000932104699
0.0009761282603
1.035116882e-05
7.769810429e-06
8.227316991e-06
5.739756039e-06
4.664597815e-06
4.439501237e-06
3.278980491e-06
2.779987045e-06
2.483396168e-06
2.814168692e-05
2.487494647e-05
1.572253142e-05
1.337294654e-05
1.059667819e-05
1.249454711e-05
0.0003127363963
0.0001012092392
0.0001019248777
3.237957881e-05
3.134815889e-05
9.459845558e-05
2.88273433e-05
2.770812401e-05
2.3656945e-05
2.576325682e-05
0.000305760293
0.0003384430264
0.0003395973566
0.0009434727647
0.000984910589
9.110667209e-06
1.017213962e-05
6.919221265e-06
5.527473254e-06
5.417936567e-06
3.942264851e-06
3.311843675e-06
3.016497082e-06
2.510157374e-06
2.551067202e-05
2.187331623e-05
1.262075942e-05
1.204621707e-05
1.026632471e-05
9.487000971e-05
0.0001031760112
0.0001054920457
9.456387209e-05
2.898263079e-05
2.93026833e-05
2.987856077e-05
2.776386474e-05
2.479797867e-05
2.740307105e-05
1.837775909e-05
2.386553505e-05
0.0001081563075
0.0003213958677
0.0001069788569
0.0003095297396
0.0003424155437
0.0003468877147
0.0009572347981
0.0009980522279
8.333622582e-06
6.520324497e-06
6.621362845e-06
4.734077126e-06
3.933832964e-06
3.664374858e-06
3.083928368e-06
2.296023333e-06
1.257200691e-05
1.507261097e-05
1.002615647e-05
8.903319271e-06
9.512622108e-05
9.395647837e-05
3.202797711e-05
3.285609914e-05
3.187530634e-05
3.293803778e-05
2.640141714e-05
2.921366166e-05
2.695780608e-05
2.540495418e-05
2.173168159e-05
1.37116151e-05
1.437033478e-05
1.764955904e-05
0.0001078345709
9.610605587e-05
0.0001033281672
9.991547738e-05
0.0003066276524
0.0003221285949
0.0003259898709
0.0003513035635
0.0003521852038
0.0009885754915
0.001001338485
7.647393734e-06
8.105720863e-06
5.676646948e-06
4.65545137e-06
4.451899483e-06
3.795407163e-06
2.781733682e-06
2.322624513e-06
1.147148009e-05
9.759341938e-06
1.222481204e-05
2.811699638e-05
2.985671142e-05
3.005067005e-05
3.214961802e-05
3.147394631e-05
2.958717904e-05
2.829407866e-05
2.87345356e-05
2.548853155e-05
2.344793605e-05
2.608580112e-05
2.344554547e-05
1.558136835e-05
1.27699504e-05
1.071611216e-05
1.181323784e-05
1.399058275e-05
0.0001001519922
9.313909767e-05
9.915692419e-05
3.225694838e-05
3.111596106e-05
0.0002986282435
9.857257365e-05
9.145830233e-05
0.0003040297535
0.0003302618498
0.0003339612142
0.0003498927841
0.0003303688325
0.0009417263488
0.001002152516
9.942687669e-06
6.794659915e-06
5.484015003e-06
5.409366066e-06
4.680666239e-06
3.369609196e-06
2.786567067e-06
2.482247354e-06
9.664859614e-06
8.591071589e-06
2.993017625e-05
2.59272977e-05
2.718761592e-05
2.820611194e-05
2.812499013e-05
2.725345293e-05
2.363716562e-05
2.553358625e-05
1.261196297e-05
1.830284672e-05
1.30131711e-05
1.74485954e-05
1.172564202e-05
1.257570744e-05
1.057424894e-05
9.22950374e-06
9.714246077e-06
1.114914862e-05
9.271481839e-05
2.939557795e-05
2.741433461e-05
2.893908309e-05
0.0001024538205
2.875174746e-05
0.0001036118424
0.0001046950345
8.891250797e-05
9.0334476e-05
0.0003102176302
0.000106744332
0.0001056343125
0.0003161387292
0.0003320271211
0.0009635619798
0.0003232784923
0.0009703708337
0.001002093991
8.114834939e-06
6.422223623e-06
6.573781431e-06
5.786584324e-06
4.080847054e-06
3.337631233e-06
3.023157993e-06
2.301392793e-06
7.464480662e-06
2.415516414e-05
2.393965972e-05
2.688499515e-05
2.49666919e-05
2.392638515e-05
2.665733962e-05
1.853621516e-05
2.372529882e-05
9.930347557e-06
1.450030514e-05
1.232624818e-05
1.030255237e-05
1.388158789e-05
9.858315671e-06
1.018584074e-05
8.749573652e-06
7.884508388e-06
7.990315741e-06
8.925927267e-06
3.124187779e-05
3.196853117e-05
2.662266126e-05
2.819766736e-05
2.530877039e-05
3.065009857e-05
3.17374508e-05
2.601151734e-05
9.264591085e-05
9.76060144e-05
3.008246032e-05
2.93427114e-05
2.614017949e-05
2.839011212e-05
2.78796903e-05
0.0001087337587
0.0001103169084
9.70930637e-05
9.331339698e-05
0.0003273494412
0.0001131174771
0.0001122379245
0.0009237012294
0.0003205660292
0.0003136265365
0.0003259313452
0.0009714170122
0.00100950386
7.174585655e-06
4.940907231e-06
3.989507728e-06
3.685968482e-06
2.770680091e-06
2.365322197e-06
1.881129334e-05
1.768321017e-05
1.338234472e-05
2.368931332e-05
2.078480965e-05
1.326198131e-05
1.488661755e-05
1.778636519e-05
8.727398385e-06
1.191347633e-05
1.030169673e-05
9.011106164e-06
1.109920456e-05
8.265049082e-06
8.275218856e-06
7.235375438e-06
6.693051951e-06
2.763255327e-05
2.775969845e-05
2.583244643e-05
2.340939348e-05
2.388712407e-05
2.829868273e-05
2.146128751e-05
3.050318899e-05
3.113886072e-05
3.02189631e-05
3.138628842e-05
2.647499782e-05
2.595899566e-05
2.797343932e-05
2.341705954e-05
2.484169801e-05
9.854709973e-05
0.0001005030018
8.66969974e-05
8.963153313e-05
0.0001132388026
0.0001079734244
0.0001041680883
0.0001023963849
0.0009283517499
0.0003337913036
0.0003336079483
0.0003000712409
0.0002976525029
0.0003096796351
0.0009750133201
0.001013289973
5.980267787e-06
4.756656438e-06
4.499976325e-06
3.333443664e-06
2.822963882e-06
2.510303422e-06
1.484947064e-05
1.247830636e-05
1.401542402e-05
1.035353816e-05
1.179661212e-05
1.493214675e-05
1.244371388e-05
1.032862648e-05
1.219094903e-05
1.41156231e-05
7.575691241e-06
9.793918695e-06
8.591485648e-06
7.791421358e-06
8.913234246e-06
6.91356544e-06
6.740402731e-06
5.653502422e-06
2.303929993e-05
2.450639172e-05
1.292478074e-05
1.941290374e-05
1.81177058e-05
2.576001782e-05
1.674410567e-05
2.648540773e-05
2.721753766e-05
2.809517672e-05
2.792074883e-05
2.13805895e-05
2.488750974e-05
2.187032051e-05
1.94665124e-05
2.357249051e-05
8.876674638e-05
9.105875522e-05
2.882622591e-05
2.828897318e-05
2.645031279e-05
2.708689159e-05
0.0001042053272
0.0001019291125
9.595158953e-05
9.35687253e-05
0.0003382850918
0.0003372746157
0.0009331774442
0.0003111583032
0.0003059224671
0.0001051315478
0.0001040256618
0.0001025231433
0.0001031492901
9.873540386e-05
9.564142584e-05
0.000978186076
0.001016409756
5.502320514e-06
4.007248468e-06
3.361395849e-06
3.047096422e-06
2.543159178e-06
1.215924384e-05
1.035112874e-05
1.116932413e-05
8.964660009e-06
1.114766959e-05
9.40459756e-06
1.212666346e-05
1.038466037e-05
9.032032403e-06
9.99417627e-06
1.126176093e-05
6.514694102e-06
8.055417325e-06
7.152946337e-06
6.67828311e-06
7.184695399e-06
5.77244289e-06
1.805499156e-05
2.273795104e-05
1.238374849e-05
1.021390261e-05
1.634802621e-05
1.439690599e-05
2.493016961e-05
1.364477206e-05
2.236113637e-05
2.405389871e-05
2.806177682e-05
2.568172099e-05
1.694796779e-05
1.255046321e-05
1.712014683e-05
1.652058303e-05
1.807760149e-05
2.910258591e-05
2.944613774e-05
3.048797429e-05
2.973314408e-05
2.539154645e-05
2.473166938e-05
2.224831447e-05
2.339177207e-05
9.991449172e-05
9.982356736e-05
3.266263273e-05
3.228122513e-05
3.105241555e-05
3.177330217e-05
0.0003162820166
0.0003402787084
0.0003140314144
0.0009368636661
0.0003409701483
0.0001088514613
0.0001081381744
0.0001061252437
0.0001071639735
9.480650481e-05
9.360025896e-05
9.138751191e-05
9.255118138e-05
8.969866698e-05
8.850972501e-05
4.812463834e-06
3.991135095e-06
3.699276426e-06
3.117977016e-06
2.331299279e-06
9.966795701e-06
8.581629432e-06
8.943900608e-06
7.696227192e-06
9.44217829e-06
8.358371024e-06
9.87934757e-06
8.649581438e-06
7.807152429e-06
8.200623641e-06
9.026369589e-06
5.562064862e-06
6.628217983e-06
5.947016197e-06
5.685706785e-06
5.809983907e-06
1.457910505e-05
1.714566522e-05
1.037343684e-05
8.965125749e-06
1.325401526e-05
1.149934362e-05
1.244516067e-05
1.138627911e-05
1.883987146e-05
2.076030847e-05
2.592330319e-05
2.498785946e-05
1.445819308e-05
1.236016142e-05
1.020118136e-05
1.400669661e-05
1.34183716e-05
1.443023329e-05
2.540407429e-05
2.500382646e-05
2.628957137e-05
2.54983083e-05
2.409185403e-05
2.321967989e-05
1.741828643e-05
1.948346592e-05
3.275050205e-05
3.137994496e-05
9.050527422e-05
2.863065731e-05
2.835635174e-05
2.714234577e-05
2.784211864e-05
0.0001108423179
0.0001104988362
0.0003177464228
0.0001095800589
0.0001100579647
0.0009393062311
0.0003424606635
0.000342028277
0.0003188663726
9.850706572e-05
9.779539329e-05
9.594754319e-05
9.694623478e-05
3.139500872e-05
3.108101511e-05
3.053952851e-05
3.089828236e-05
3.029033755e-05
3.024169928e-05
3.036826532e-05
3.008630834e-05
3.051040424e-05
3.018935321e-05
2.898325975e-05
2.986530841e-05
4.722074383e-06
4.49194166e-06
3.828938088e-06
2.815020513e-06
2.393443765e-06
8.176783766e-06
7.111288412e-06
7.191653976e-06
6.563778582e-06
7.970758204e-06
7.325923889e-06
8.070273535e-06
7.193138567e-06
6.689312691e-06
6.733986809e-06
7.263555924e-06
5.45574055e-06
4.938818754e-06
4.815150254e-06
4.711141274e-06
1.19864203e-05
1.370296408e-05
1.185260339e-05
8.669260399e-06
7.775962293e-06
1.077206867e-05
9.226285834e-06
9.808560189e-06
9.488187772e-06
1.694384077e-05
1.849873306e-05
1.301948391e-05
1.929890163e-05
1.209194366e-05
1.044230038e-05
9.085816404e-06
1.168202032e-05
1.091736962e-05
1.156789414e-05
2.031949336e-05
2.077008006e-05
2.246156039e-05
2.150827031e-05
1.207318664e-05
1.774563979e-05
1.433829259e-05
1.654845482e-05
2.871281267e-05
2.836396098e-05
2.742312472e-05
2.58420434e-05
2.531339118e-05
2.535902372e-05
2.38609398e-05
2.493128873e-05
0.0001002297681
0.0001111158034
9.992820872e-05
0.0001113674337
9.908261921e-05
9.955537034e-05
0.0003432960562
0.0003430241135
0.0003201593867
0.0003195996651
0.0001117136432
0.0001115240773
3.261097408e-05
3.245663537e-05
3.221560656e-05
3.239689147e-05
3.154589353e-05
3.180427673e-05
3.213234458e-05
3.191813487e-05
2.702930286e-05
2.680605207e-05
2.62620545e-05
2.653942945e-05
2.66415996e-05
2.573333671e-05
2.596495295e-05
2.574513547e-05
2.722850355e-05
2.731146746e-05
2.500594251e-05
2.651685022e-05
3.397408982e-06
2.861355819e-06
2.533149064e-06
6.713119666e-06
5.89061788e-06
5.803370956e-06
5.569015708e-06
6.71041702e-06
6.354321578e-06
6.607680032e-06
5.974330097e-06
5.692759169e-06
5.533103221e-06
5.864997916e-06
4.097774509e-06
4.060867261e-06
9.862388909e-06
1.100269457e-05
9.98554705e-06
7.23142676e-06
6.683993402e-06
8.773117848e-06
7.431296156e-06
8.720188416e-06
7.897393282e-06
1.381082457e-05
1.483126551e-05
1.021915653e-05
1.262156883e-05
1.528222079e-05
1.008452097e-05
8.781128594e-06
7.959728874e-06
9.724453839e-06
8.895220241e-06
9.307230553e-06
1.609336102e-05
1.751825362e-05
1.953754713e-05
1.857153478e-05
1.192176885e-05
9.797720832e-06
1.418203595e-05
1.191897335e-05
1.342390211e-05
2.509279308e-05
2.716518001e-05
2.377606607e-05
2.293840688e-05
2.060711307e-05
2.449944104e-05
2.076519903e-05
2.409089082e-05
3.311641652e-05
3.303421453e-05
0.0001004733274
3.293484007e-05
3.303028851e-05
0.0001006660502
3.265208647e-05
3.278345527e-05
3.292111898e-05
3.280931089e-05
0.0003208289292
0.0003205378029
0.0001121062448
0.0001119931915
0.0001118035691
0.0001119483897
0.0001009488759
0.0001008254241
2.809302521e-05
2.801359446e-05
2.781355729e-05
2.791404066e-05
2.723639072e-05
2.740438128e-05
2.768964706e-05
2.756182992e-05
2.322976471e-05
2.301484454e-05
2.24513884e-05
2.275712147e-05
2.137127094e-05
2.141800874e-05
2.210501133e-05
2.173406682e-05
2.598786573e-05
2.632194362e-05
2.186670289e-05
2.305845128e-05
3.413328447e-06
3.077980891e-06
2.55596952e-06
5.51477857e-06
4.877957183e-06
4.697362618e-06
4.705612454e-06
5.63697262e-06
5.467633772e-06
5.420750449e-06
4.956911156e-06
4.81899903e-06
4.548737681e-06
4.749511034e-06
8.119946513e-06
8.870361672e-06
8.385952916e-06
6.022870056e-06
5.705517008e-06
7.157603434e-06
6.005433094e-06
7.636996306e-06
6.567122952e-06
1.126794584e-05
1.192893448e-05
9.039878216e-06
1.05839949e-05
1.216413661e-05
8.391358775e-06
7.357086411e-06
6.888793944e-06
8.082321443e-06
7.256245466e-06
7.511665926e-06
1.39143645e-05
1.624216578e-05
1.855129319e-05
1.759039784e-05
1.008626561e-05
8.77464262e-06
1.138461579e-05
9.893531268e-06
1.09121554e-05
2.138370975e-05
2.211657803e-05
2.094484057e-05
2.007600593e-05
1.653154972e-05
1.24829007e-05
1.92684825e-05
1.957484409e-05
2.850509428e-05
3.311332593e-05
2.847650804e-05
3.318435932e-05
2.839881854e-05
2.84360448e-05
3.323808404e-05
3.317645238e-05
2.817303976e-05
2.82354461e-05
2.834794384e-05
2.829946859e-05
0.0001122922785
0.0001122211229
0.0001121269543
0.000112216029
0.0001012600843
0.0001012076923
0.000101055517
0.0001011355471
3.331408701e-05
3.326722275e-05
3.322673473e-05
3.328035802e-05
2.412701819e-05
2.405665137e-05
2.388989491e-05
2.397851144e-05
2.340559343e-05
2.355332717e-05
2.379145875e-05
2.367946722e-05
2.064004993e-05
2.043663962e-05
1.981279259e-05
2.016487279e-05
1.685336765e-05
1.80348266e-05
1.936927571e-05
1.880945398e-05
1.296204701e-05
2.026792096e-05
1.990742685e-05
2.024152244e-05
3.741110057e-06
3.136531423e-06
2.332681231e-06
4.532619414e-06
4.038367507e-06
3.811970074e-06
3.962992025e-06
4.726789993e-06
4.675407008e-06
4.454392159e-06
4.109292091e-06
4.062235321e-06
3.85566191e-06
6.688917605e-06
7.176239619e-06
7.024674446e-06
5.010070275e-06
4.843803496e-06
5.84813369e-06
4.866891739e-06
6.613989763e-06
5.456724668e-06
9.200587566e-06
9.620445467e-06
7.882081223e-06
8.848069125e-06
9.725606091e-06
6.969743704e-06
6.145909401e-06
5.907360671e-06
6.709004872e-06
5.925111593e-06
6.078466774e-06
1.173061634e-05
1.341543043e-05
1.49834486e-05
1.436363406e-05
8.500520629e-06
7.73136697e-06
9.174181837e-06
8.202619163e-06
8.885997494e-06
1.801405976e-05
1.914970596e-05
1.943573161e-05
1.874970081e-05
1.436047097e-05
1.258005566e-05
1.025738833e-05
1.537837405e-05
1.546537089e-05
2.445633812e-05
2.85374683e-05
2.443061799e-05
2.855938485e-05
2.43693936e-05
2.440222816e-05
2.860203005e-05
2.858532743e-05
2.418846328e-05
2.424338537e-05
2.433302662e-05
2.429078481e-05
0.00010140437
0.0001013807449
0.0001013103348
0.0001013452696
3.339302651e-05
3.336510225e-05
3.334742941e-05
3.337910223e-05
3.329965028e-05
3.334068374e-05
3.336215865e-05
3.332615614e-05
2.86622582e-05
2.865254163e-05
2.862289788e-05
2.863561967e-05
2.140511223e-05
2.134579961e-05
2.120520808e-05
2.127944481e-05
2.079244903e-05
2.091721695e-05
2.112129637e-05
2.102597534e-05
2.011301064e-05
1.992223119e-05
1.914079114e-05
1.960158813e-05
1.436245692e-05
1.651510779e-05
1.855377664e-05
1.773577731e-05
1.277596916e-05
1.031487208e-05
1.601614827e-05
1.605815701e-05
1.615930916e-05
2.81863796e-06
2.390751074e-06
3.726932681e-06
3.342604095e-06
3.100212892e-06
3.328731309e-06
3.957794714e-06
3.978323144e-06
3.66541678e-06
3.404278464e-06
3.412846461e-06
5.512550366e-06
5.823004697e-06
5.872256247e-06
4.16337388e-06
4.094521189e-06
4.784080109e-06
3.9536539e-06
5.679456288e-06
4.531215995e-06
7.51748044e-06
7.776249792e-06
6.798978902e-06
7.378638393e-06
7.805799806e-06
5.780425733e-06
5.122040685e-06
5.030012413e-06
5.563308784e-06
4.842127208e-06
4.92960818e-06
9.855716913e-06
1.107398457e-05
1.21307655e-05
1.173910897e-05
7.142021509e-06
6.730486597e-06
7.41731296e-06
6.794183362e-06
7.246703738e-06
1.658441093e-05
1.78576038e-05
1.580317613e-05
1.532546948e-05
1.203558027e-05
1.053758664e-05
9.083019922e-06
1.232469741e-05
1.229025829e-05
2.167146327e-05
2.447842763e-05
2.16512969e-05
2.449852975e-05
2.160242027e-05
2.162832676e-05
2.453129968e-05
2.451565291e-05
2.145718392e-05
2.150202009e-05
2.157321204e-05
2.154036458e-05
3.3426696e-05
3.340964803e-05
3.340124275e-05
3.342049787e-05
3.337939658e-05
3.340404589e-05
3.341324463e-05
3.339147608e-05
2.872491242e-05
2.872163666e-05
2.870962163e-05
2.871390258e-05
2.867602079e-05
2.868343199e-05
2.870035982e-05
2.869473593e-05
2.457694801e-05
2.456724309e-05
2.454459685e-05
2.455685899e-05
2.083444372e-05
2.078320956e-05
2.066154099e-05
2.072627477e-05
2.026131524e-05
2.039124427e-05
2.058697551e-05
2.049851248e-05
1.63909764e-05
1.625966776e-05
1.569037988e-05
1.60338047e-05
1.208982666e-05
1.367557552e-05
1.524252283e-05
1.460872105e-05
1.075399386e-05
9.215127907e-06
1.271769781e-05
1.296306342e-05
1.293439958e-05
2.859551081e-06
2.522213376e-06
3.065516946e-06
2.76625503e-06
2.525974764e-06
2.789974975e-06
3.309956412e-06
3.371901965e-06
3.019726608e-06
4.544751487e-06
4.736935325e-06
4.900700791e-06
3.456918976e-06
3.449238642e-06
3.917620724e-06
3.21825276e-06
4.84489559e-06
3.760741787e-06
6.145614242e-06
6.297456576e-06
5.816774374e-06
6.14103114e-06
6.285453214e-06
4.788309668e-06
4.260640945e-06
4.259344588e-06
4.609397369e-06
3.959777512e-06
4.005314367e-06
8.257714922e-06
9.136708396e-06
9.840920475e-06
9.601131412e-06
5.985755905e-06
5.805829284e-06
6.013731525e-06
5.623179651e-06
5.917071316e-06
1.367756663e-05
1.464963047e-05
1.284480741e-05
1.251896036e-05
1.006649956e-05
8.811284727e-06
7.939062721e-06
9.912515937e-06
9.817409936e-06
2.105859926e-05
2.168926384e-05
2.104204146e-05
2.170490045e-05
2.100112647e-05
2.102304559e-05
2.173062821e-05
2.171864822e-05
2.088179602e-05
2.091958754e-05
2.097658193e-05
2.094918858e-05
2.875194001e-05
2.875087449e-05
2.874561446e-05
2.874701705e-05
2.873133604e-05
2.87338236e-05
2.874110964e-05
2.87392383e-05
2.462320876e-05
2.461924972e-05
2.461034274e-05
2.461521452e-05
2.458511786e-05
2.459281301e-05
2.460530597e-05
2.459922519e-05
2.176604089e-05
2.175873949e-05
2.174119427e-05
2.175046306e-05
1.688144919e-05
1.684611807e-05
1.676251174e-05
1.680694487e-05
1.649181116e-05
1.65796395e-05
1.67119368e-05
1.665202097e-05
1.334325345e-05
1.325309727e-05
1.284165357e-05
1.309547057e-05
1.013328008e-05
1.13020337e-05
1.250215173e-05
1.201365492e-05
9.010768796e-06
8.087281502e-06
1.014047521e-05
1.047103354e-05
1.037575364e-05
2.28898632e-06
2.334335365e-06
2.765451432e-06
2.848910554e-06
2.490228191e-06
3.748018474e-06
3.861703365e-06
4.084330578e-06
2.868406633e-06
2.897602871e-06
3.210807841e-06
2.624071437e-06
4.111606148e-06
3.119952999e-06
5.026348334e-06
5.107900454e-06
4.944895414e-06
5.102813817e-06
5.075234959e-06
3.962607821e-06
3.538670641e-06
3.591039942e-06
3.816435687e-06
3.240024152e-06
3.259362223e-06
6.903469963e-06
7.535300749e-06
7.996695227e-06
7.857269636e-06
5.006630283e-06
4.972927943e-06
4.887341894e-06
4.651032108e-06
4.836323558e-06
1.127677847e-05
1.201353577e-05
1.043713684e-05
1.022135985e-05
8.405614858e-06
7.357301134e-06
6.87134711e-06
7.996515781e-06
7.877369021e-06
1.703395789e-05
2.107342262e-05
1.702297548e-05
2.108627171e-05
1.699493811e-05
1.701012266e-05
2.110743474e-05
2.109773564e-05
1.691437542e-05
1.694042995e-05
1.69786534e-05
1.696064983e-05
2.464231201e-05
2.464058423e-05
2.463683926e-05
2.463892118e-05
2.462644679e-05
2.4629644e-05
2.46347936e-05
2.463222557e-05
2.180129309e-05
2.179844543e-05
2.179174266e-05
2.179524043e-05
2.177257979e-05
2.177833766e-05
2.178781586e-05
2.178341878e-05
2.11360769e-05
2.113011687e-05
2.111578896e-05
2.112342008e-05
1.367404425e-05
1.364997041e-05
1.359311146e-05
1.362330622e-05
1.341161563e-05
1.347058207e-05
1.355917075e-05
1.351898073e-05
1.085276552e-05
1.079114392e-05
1.049682911e-05
1.068258683e-05
8.464528884e-06
9.325678657e-06
1.02412456e-05
9.866778793e-06
7.522922605e-06
7.005646956e-06
8.114026673e-06
8.462358823e-06
8.33831345e-06
2.308663437e-06
2.400902316e-06
3.091750339e-06
3.153871791e-06
3.40018175e-06
2.378779673e-06
2.428741163e-06
2.633374895e-06
3.474978159e-06
2.587453854e-06
4.112450715e-06
4.14844534e-06
4.182751662e-06
4.234612145e-06
4.107579824e-06
3.276685873e-06
2.935379352e-06
3.017083588e-06
3.158122634e-06
2.652329626e-06
2.655759966e-06
5.760946734e-06
6.212527487e-06
6.507154312e-06
6.433345407e-06
4.18085593e-06
4.23597228e-06
3.979885586e-06
3.844937528e-06
3.956313938e-06
9.295080218e-06
9.84884862e-06
8.478724159e-06
8.342109389e-06
7.009279335e-06
6.136111944e-06
5.902417401e-06
6.467298767e-06
6.345251527e-06
1.377680881e-05
1.704431914e-05
1.376961732e-05
1.705290132e-05
1.375053562e-05
1.376100623e-05
1.706731908e-05
1.706100037e-05
1.369668941e-05
1.371448822e-05
1.373988637e-05
1.37282331e-05
2.181530587e-05
2.181414234e-05
2.181147273e-05
2.181286077e-05
2.180386432e-05
2.18061321e-05
2.180990481e-05
2.180815141e-05
2.116442264e-05
2.116207945e-05
2.115664404e-05
2.115956966e-05
2.114145111e-05
2.11462662e-05
2.115374299e-05
2.115043853e-05
1.708638091e-05
1.708235472e-05
1.707259064e-05
1.707785576e-05
1.107314668e-05
1.105702084e-05
1.101894305e-05
1.103916055e-05
1.089888695e-05
1.093804799e-05
1.099654048e-05
1.096997007e-05
8.820932958e-06
8.779135613e-06
8.571422069e-06
8.705760264e-06
7.05139831e-06
7.685091288e-06
8.38049694e-06
8.095083097e-06
6.262738284e-06
6.009620502e-06
6.511840778e-06
6.8418344e-06
6.710935709e-06
2.550944773e-06
2.579686671e-06
2.828071594e-06
2.927276043e-06
3.365744903e-06
3.37284216e-06
3.524069324e-06
3.510424735e-06
3.330906872e-06
2.707739925e-06
2.432473886e-06
2.527792106e-06
2.6121791e-06
4.800490479e-06
5.120576849e-06
5.301201402e-06
5.269627832e-06
3.486664507e-06
3.592409199e-06
3.246371441e-06
3.177198497e-06
3.238692227e-06
7.660076471e-06
8.072257244e-06
6.886445353e-06
6.806170003e-06
5.838454915e-06
5.112767007e-06
5.040223664e-06
5.241707516e-06
5.128137809e-06
1.114137893e-05
1.378401309e-05
1.11367581e-05
1.378966998e-05
1.112392403e-05
1.113106893e-05
1.379942348e-05
1.37953843e-05
1.10884709e-05
1.110046794e-05
1.111709331e-05
1.110972352e-05
2.11753029e-05
2.117445512e-05
2.11723566e-05
2.117343528e-05
2.116653333e-05
2.116827231e-05
2.11712515e-05
2.116995696e-05
1.710563159e-05
1.710395522e-05
1.710012177e-05
1.710231949e-05
1.709014608e-05
1.709360325e-05
1.709848001e-05
1.709660474e-05
1.381194913e-05
1.380925362e-05
1.380264857e-05
1.380626239e-05
8.965073528e-06
8.954539976e-06
8.929623451e-06
8.942856135e-06
8.851818192e-06
8.87739135e-06
8.915197499e-06
8.898016224e-06
7.16545206e-06
7.137423709e-06
6.993441068e-06
7.089160114e-06
5.86137191e-06
6.326570832e-06
6.852091073e-06
6.635893635e-06
5.201695471e-06
5.116727044e-06
5.23904343e-06
5.533491647e-06
5.407773597e-06
2.350482636e-06
2.459365843e-06
2.755315718e-06
2.744685203e-06
2.959715459e-06
2.907596665e-06
2.705483286e-06
3.995397609e-06
4.219623149e-06
4.322888851e-06
4.317878649e-06
2.90459856e-06
3.035926909e-06
2.651772239e-06
2.624504509e-06
2.652772658e-06
6.31163069e-06
6.614831646e-06
5.59231288e-06
5.551572395e-06
4.858811897e-06
4.256796567e-06
4.283877505e-06
4.255964639e-06
4.156227435e-06
9.009367401e-06
1.114634126e-05
9.006498077e-06
1.115000925e-05
8.998003946e-06
9.002818382e-06
1.115652783e-05
1.115400958e-05
8.975200109e-06
8.983126921e-06
8.993763875e-06
8.989272922e-06
1.711277549e-05
1.711234268e-05
1.711088309e-05
1.711159806e-05
1.710718691e-05
1.710823089e-05
1.711029186e-05
1.710955759e-05
1.382492019e-05
1.382372434e-05
1.382102655e-05
1.382267523e-05
1.381457767e-05
1.381705575e-05
1.382018157e-05
1.381921099e-05
1.116459677e-05
1.116281703e-05
1.115840027e-05
1.116085912e-05
7.257092316e-06
7.250480976e-06
7.234739749e-06
7.243114828e-06
7.185882981e-06
7.202172386e-06
7.225804396e-06
7.215073698e-06
5.818019584e-06
5.799540523e-06
5.70218318e-06
5.769089651e-06
4.863600274e-06
5.203832998e-06
5.598635126e-06
5.436003011e-06
4.312461499e-06
4.331181298e-06
4.223790236e-06
4.476556292e-06
4.362031807e-06
2.479398952e-06
2.406614755e-06
3.322092965e-06
3.476559472e-06
3.527913202e-06
3.539009642e-06
2.417579663e-06
2.558390146e-06
5.19986373e-06
5.419673258e-06
4.540807129e-06
4.527280999e-06
4.040555468e-06
3.541889875e-06
3.62744831e-06
3.460748094e-06
3.376603359e-06
7.284866042e-06
9.012751559e-06
7.283176247e-06
9.015065145e-06
7.277692348e-06
7.280880311e-06
9.019336013e-06
9.017838626e-06
7.263550678e-06
7.268633754e-06
7.275201565e-06
7.272634517e-06
1.382954323e-05
1.382936458e-05
1.382835377e-05
1.382882099e-05
1.382606667e-05
1.382666167e-05
1.3828081e-05
1.382770134e-05
1.117323112e-05
1.117237965e-05
1.117049139e-05
1.117172488e-05
1.11664203e-05
1.116819108e-05
1.117014089e-05
1.116973272e-05
9.024382381e-06
9.023232901e-06
9.020335072e-06
9.021982087e-06
5.873701691e-06
5.869813879e-06
5.860427322e-06
5.865439011e-06
5.831286272e-06
5.841256531e-06
5.855244184e-06
5.848913664e-06
4.72222835e-06
4.710361035e-06
4.646852592e-06
4.692426445e-06
4.029921976e-06
4.277422732e-06
4.571962436e-06
4.450599534e-06
3.569937583e-06
3.649460504e-06
3.411165659e-06
3.622302782e-06
3.521395773e-06
2.760057336e-06
2.863925269e-06
2.881015626e-06
2.901302272e-06
4.283463779e-06
4.43988554e-06
3.686635244e-06
3.691343471e-06
3.358061946e-06
2.945522988e-06
3.062376264e-06
2.817597406e-06
2.74876795e-06
5.890148237e-06
7.287135782e-06
5.889243873e-06
7.28852931e-06
5.885847985e-06
5.887889141e-06
7.291248069e-06
7.290434531e-06
5.877587912e-06