/*--------------------------------*- C++ -*----------------------------------*\
  =========                 |
  \\      /  F ield         | OpenFOAM: The Open Source CFD Toolbox
   \\    /   O peration     | Website:  https://openfoam.org
    \\  /    A nd           | Version:  8
     \\/     M anipulation  |
\*---------------------------------------------------------------------------*/






FoamFile
{
    version     2.0;
    format      ascii;
    class       volScalarField;
    location    "0";
    object      V;
}
// * * * * * * * * * * * * * * * * * * * * * * * * * * * * * * * * * * * * * //

dimensions      [0 3 0 0 0 0 0];


internalField   nonuniform List<scalar> 
12992
(
0.0002407671486
0.0002418584119
0.0002281925474
0.000243252123
0.000229187639
8.176686196e-05
8.158466683e-05
0.0002304875368
0.0002449762582
8.186711255e-05
8.211102056e-05
7.503925066e-05
7.493992357e-05
0.0002321356179
8.256843953e-05
8.224995339e-05
0.0002470336843
7.5167718e-05
7.530619893e-05
2.542768918e-05
2.54640585e-05
2.540285314e-05
2.543363195e-05
8.275431395e-05
0.0002341532567
8.315913051e-05
7.567012381e-05
7.548191811e-05
0.0002493883793
2.545713435e-05
2.549979731e-05
2.554264726e-05
2.549288968e-05
2.241249808e-05
2.242092727e-05
2.239421255e-05
2.240115364e-05
7.590406355e-05
8.389555366e-05
8.339627758e-05
0.0002365195382
7.615199587e-05
2.565132172e-05
2.558521021e-05
2.559246091e-05
2.553491161e-05
0.0002613002305
0.0002519547134
2.243447391e-05
2.244474123e-05
2.247345833e-05
2.246103357e-05
1.970027026e-05
1.970740859e-05
1.968819222e-05
1.969410651e-05
2.564357512e-05
2.571885046e-05
7.676699232e-05
8.417794755e-05
7.645333024e-05
0.0002391450802
8.477234061e-05
2.579732642e-05
2.571230289e-05
2.254834034e-05
2.253051284e-05
2.250767127e-05
2.249273076e-05
0.0002638114223
0.0002546000757
1.971490866e-05
1.97236344e-05
1.974339652e-05
1.973281482e-05
1.787307635e-05
1.787778929e-05
1.786478718e-05
1.786877172e-05
2.257500372e-05
2.259615412e-05
2.598633425e-05
2.588114477e-05
7.713860234e-05
2.579074437e-05
2.588577899e-05
0.0002418515527
8.574923781e-05
8.507183746e-05
7.751331867e-05
2.265213598e-05
2.262729632e-05
1.979571974e-05
1.978052937e-05
1.976720282e-05
1.975448732e-05
0.0002663326547
0.000257256194
1.788308927e-05
1.788906344e-05
1.7903064e-05
1.789574169e-05
1.763467653e-05
1.763811637e-05
1.76271323e-05
1.76307442e-05
1.981162483e-05
1.982968266e-05
2.279076299e-05
2.598187839e-05
2.275765978e-05
2.609682373e-05
2.268788809e-05
2.271675947e-05
8.599353231e-05
0.0002443599761
8.672282441e-05
7.835071564e-05
7.79432721e-05
2.621853966e-05
2.609455439e-05
1.986986087e-05
1.984857645e-05
1.794069548e-05
1.79299328e-05
1.792008644e-05
1.791118588e-05
0.0002686088519
0.0002596998506
1.764287788e-05
1.76484613e-05
1.766112675e-05
1.765449545e-05
1.453629299e-05
1.45375513e-05
1.45304124e-05
1.453314426e-05
1.795259283e-05
1.796559872e-05
1.997118253e-05
2.283663509e-05
1.994261568e-05
2.287402966e-05
1.989204626e-05
1.991685129e-05
7.879640383e-05
0.0002469297477
8.748674874e-05
8.675382738e-05
7.916062385e-05
2.648041573e-05
2.634395771e-05
2.621536307e-05
2.634670558e-05
2.296634379e-05
2.292503406e-05
1.799555504e-05
1.797994007e-05
1.769574356e-05
1.768577027e-05
1.767673389e-05
1.766854637e-05
0.0002706440385
0.0002715982648
1.454113255e-05
1.454547459e-05
1.455454281e-05
1.454984428e-05
1.198240834e-05
1.198232997e-05
1.19778654e-05
1.197991538e-05
1.770672655e-05
1.771899403e-05
1.807266438e-05
2.000071592e-05
1.805114718e-05
2.003317944e-05
1.80126489e-05
1.80311037e-05
2.647194911e-05
2.660956644e-05
8.68187688e-05
0.000243539589
8.729888209e-05
7.965441528e-05
7.952003228e-05
2.672858759e-05
2.659470242e-05
2.316995759e-05
2.312424825e-05
2.30214666e-05
2.306586548e-05
2.010261034e-05
2.006648405e-05
1.774743476e-05
1.77325253e-05
1.457934862e-05
1.457226295e-05
1.456580073e-05
1.455993638e-05
0.0002639882953
0.0002451307139
1.198499964e-05
1.198834818e-05
1.199476188e-05
1.199147809e-05
9.877296896e-06
9.876437715e-06
9.873819476e-06
9.87534362e-06
1.458707369e-05
1.459588217e-05
1.782201712e-05
1.809600188e-05
1.780101154e-05
1.812091789e-05
1.776388221e-05
1.778177761e-05
2.322877374e-05
2.327296677e-05
7.969730672e-05
0.0002378894399
8.581556749e-05
8.582779741e-05
7.935559562e-05
2.686138102e-05
2.676142067e-05
2.669461206e-05
2.681625783e-05
2.336713146e-05
2.332918238e-05
2.025857501e-05
2.021761357e-05
2.013926183e-05
2.017847502e-05
1.817551921e-05
1.814751289e-05
1.461625505e-05
1.46055795e-05
1.201231857e-05
1.200735292e-05
1.200278974e-05
1.199864183e-05
0.0007722058436
0.0002360502523
9.878405967e-06
9.880964902e-06
9.885425533e-06
9.883173725e-06
8.142073514e-06
8.140795279e-06
8.139438626e-06
8.140559063e-06
1.201766743e-05
1.202391377e-05
1.466986441e-05
1.784454388e-05
1.465474922e-05
1.786961988e-05
1.462822623e-05
1.464116687e-05
2.029837695e-05
2.033883437e-05
2.676874478e-05
2.68347318e-05
8.38463986e-05
0.0002447077591
8.385597602e-05
7.787641758e-05
7.885433446e-05
2.672321808e-05
2.67040181e-05
2.347763413e-05
2.347224393e-05
2.341441054e-05
2.343998976e-05
2.041281272e-05
2.037647886e-05
1.830014868e-05
1.826775677e-05
1.820507363e-05
1.823587224e-05
1.792312434e-05
1.789592353e-05
1.20383204e-05
1.20307747e-05
9.897637239e-06
9.894225265e-06
9.891059657e-06
9.888176041e-06
0.0002567373855
0.0002567250468
0.0002672347952
8.142226805e-06
8.144162013e-06
8.147190474e-06
8.145689945e-06
6.711727611e-06
6.710261995e-06
6.709754725e-06
6.710566243e-06
9.901259042e-06
9.905611983e-06
1.207634985e-05
1.468560243e-05
1.20656183e-05
1.470453923e-05
1.204693484e-05
1.205617864e-05
1.833282386e-05
1.836495228e-05
2.348507776e-05
2.346140072e-05
7.677490185e-05
8.1037781e-05
7.777335697e-05
8.32577133e-05
7.981005626e-05
7.516894825e-05
2.612039217e-05
2.624255072e-05
2.653400427e-05
2.649044207e-05
2.337134062e-05
2.343525535e-05
2.050197171e-05
2.049020893e-05
2.044393314e-05
2.047119351e-05
1.84250815e-05
1.839608034e-05
1.804703734e-05
1.801491253e-05
1.795260975e-05
1.798327636e-05
1.47424926e-05
1.472374498e-05
9.915617917e-06
9.910381146e-06
8.155477671e-06
8.153198886e-06
8.151058455e-06
8.149102151e-06
0.0002593672434
0.0002736174821
0.0002459585503
8.813537839e-05
6.711285195e-06
6.712731438e-06
6.714714964e-06
6.713757951e-06
5.532680649e-06
5.531172639e-06
5.531223835e-06
5.531800382e-06
8.15784934e-06
8.160809364e-06
9.942108089e-06
1.208714358e-05
9.934630056e-06
1.210129266e-05
9.921722821e-06
9.928216906e-06
1.807928802e-05
1.811121848e-05
2.050174205e-05
2.049027244e-05
2.579236778e-05
2.557660161e-05
8.002200709e-05
8.226540371e-05
7.262233173e-05
7.365208746e-05
2.501806912e-05
2.524485557e-05
2.284934569e-05
2.304051575e-05
2.32969598e-05
2.317818898e-05
2.041742898e-05
2.046222667e-05
1.849821367e-05
1.848917468e-05
1.84511894e-05
1.847292427e-05
1.817076814e-05
1.814181264e-05
1.483349492e-05
1.481000036e-05
1.476436024e-05
1.478675666e-05
1.212776306e-05
1.211513596e-05
8.167582233e-06
8.164041735e-06
6.720137574e-06
6.718679433e-06
6.717286919e-06
6.716007455e-06
8.746120755e-05
8.833152991e-05
5.531886557e-06
5.532952344e-06
5.534180066e-06
5.533612053e-06
4.560773539e-06
4.559309928e-06
4.559716073e-06
4.560115518e-06
6.721610395e-06
6.723551337e-06
8.185565421e-06
9.949315361e-06
8.180489687e-06
9.959753575e-06
8.171819953e-06
8.176276465e-06
1.48572532e-05
1.488114571e-05
1.849865526e-05
1.848830316e-05
2.262863923e-05
2.235595083e-05
7.528237268e-05
7.969846386e-05
8.223485304e-05
2.452145832e-05
2.487591276e-05
2.497987683e-05
2.496577724e-05
2.179649766e-05
2.206455719e-05
1.996660463e-05
2.012947638e-05
2.034944075e-05
2.025619522e-05
1.842602647e-05
1.846509953e-05
1.824573221e-05
1.823573957e-05
1.819693123e-05
1.82189702e-05
1.492619565e-05
1.490392647e-05
1.219359508e-05
1.217670183e-05
1.21437708e-05
1.215988512e-05
9.977777753e-06
9.969561139e-06
6.727963736e-06
6.725660734e-06
5.53752715e-06
5.536659438e-06
5.535807063e-06
5.535017559e-06
7.794909995e-05
8.323261136e-05
4.559791848e-06
4.560563828e-06
4.561250067e-06
4.56095818e-06
3.75960969e-06
3.758239456e-06
3.758858655e-06
3.759125575e-06
5.538360057e-06
5.539561853e-06
6.739714013e-06
8.190184264e-06
6.736400136e-06
8.197765732e-06
6.730819109e-06
6.733775318e-06
1.221078592e-05
1.222833183e-05
1.824758949e-05
1.823943228e-05
1.976073515e-05
1.95078579e-05
2.351498155e-05
2.293669335e-05
2.391863618e-05
2.559684711e-05
7.596056248e-05
2.66131921e-05
2.205363387e-05
2.251651966e-05
2.169238356e-05
2.231272098e-05
1.882609633e-05
1.919637301e-05
1.80151818e-05
1.817127613e-05
1.836794576e-05
1.828585109e-05
1.818157917e-05
1.821852834e-05
1.498856437e-05
1.497900116e-05
1.494687149e-05
1.496463706e-05
1.226166026e-05
1.224493321e-05
1.002447851e-05
1.001259944e-05
9.989304118e-06
1.000067321e-05
8.209612098e-06
8.204552234e-06
5.542265101e-06
5.54085728e-06
4.563110155e-06
4.562661824e-06
4.562195703e-06
4.561756807e-06
7.967203131e-05
7.690250496e-05
3.758549008e-06
3.759096011e-06
3.759399836e-06
3.759300469e-06
3.099189376e-06
3.097937501e-06
3.098671501e-06
3.098840001e-06
4.563493564e-06
4.564164883e-06
5.549487482e-06
6.742480157e-06
5.547454241e-06
6.74787723e-06
5.544104313e-06
5.545965061e-06
1.003663482e-05
1.00492293e-05
1.499289402e-05
1.499074501e-05
1.78094191e-05
1.754392236e-05
2.086466021e-05
2.411327651e-05
1.969372142e-05
2.386823131e-05
2.633164533e-05
2.587592756e-05
2.130137303e-05
2.188335088e-05
1.845057289e-05
1.824570319e-05
1.668447786e-05
1.719552027e-05
1.775755696e-05
1.792821129e-05
1.812438465e-05
1.804170857e-05
1.495855446e-05
1.498004296e-05
1.231119352e-05
1.230297718e-05
1.227753888e-05
1.229134287e-05
1.007324476e-05
1.006100842e-05
8.241877794e-06
8.233776702e-06
8.217735012e-06
8.225542895e-06
6.755241297e-06
6.752418531e-06
4.565644255e-06
4.564877286e-06
3.760210257e-06
3.760054563e-06
3.759860665e-06
3.759669257e-06
2.547146646e-05
2.632801329e-05
2.482529162e-05
2.377701725e-05
2.520871961e-05
3.098120126e-06
3.098496376e-06
3.098535751e-06
3.098567001e-06
3.760284128e-06
3.760579758e-06
4.569615139e-06
5.550942256e-06
4.568502102e-06
5.554682495e-06
4.566744419e-06
4.567813543e-06
8.25021175e-06
8.25898769e-06
1.231610513e-05
1.231690107e-05
1.750639943e-05
1.715877588e-05
1.785253484e-05
2.188429311e-05
2.261022524e-05
1.577785859e-05
2.391144449e-05
2.312461757e-05
1.654070309e-05
1.11037271e-05
1.590370199e-05
1.469952308e-05
1.601359143e-05
1.667922574e-05
1.468251031e-05
1.479752481e-05
1.492368389e-05
1.487125284e-05
1.229991364e-05
1.231200366e-05
1.01109564e-05
1.010441689e-05
1.008508709e-05
1.009543136e-05
8.275722895e-06
8.267053431e-06
6.776709058e-06
6.771427014e-06
6.760798891e-06
6.765956588e-06
5.55882889e-06
5.557570087e-06
3.761196349e-06
3.760881072e-06
3.098620001e-06
3.098664126e-06
3.098657501e-06
3.098637501e-06
2.415521899e-05
2.408227826e-05
2.430044755e-05
2.191776605e-05
3.098486376e-06
3.098521751e-06
3.762867777e-06
4.570156406e-06
3.762406309e-06
4.572651637e-06
3.761766061e-06
3.762271141e-06
6.782171626e-06
6.788039146e-06
1.011546645e-05
1.01174325e-05
1.450666781e-05
1.425488143e-05
1.54099966e-05
2.032826309e-05
2.090593841e-05
1.152733278e-05
1.314065171e-05
2.245550388e-05
1.099892262e-05
1.337633705e-05
9.002652753e-06
1.483025278e-05
1.269335807e-05
1.338490262e-05
1.389530519e-05
1.212142804e-05
1.219864263e-05
1.227909628e-05
1.224621707e-05
1.010913818e-05
1.011565369e-05
8.303188441e-06
8.298329632e-06
8.284264804e-06
8.291711768e-06
6.799171863e-06
6.793285204e-06
5.572303834e-06
5.569100633e-06
5.56247121e-06
5.565676852e-06
4.574521647e-06
4.574334548e-06
3.098542751e-06
3.098539001e-06
2.472556466e-05
2.052231448e-05
1.221414939e-05
1.939094359e-05
3.098622751e-06
3.762787832e-06
3.098612251e-06
3.764357162e-06
3.098738251e-06
3.098849376e-06
5.575636163e-06
5.579318838e-06
8.306855991e-06
8.309017208e-06
1.19984633e-05
1.181584504e-05
1.267090032e-05
1.634306797e-05
1.585272008e-05
9.163232857e-06
1.107774915e-05
1.112667395e-05
1.135167946e-05
9.434751966e-06
1.084942913e-05
8.201792941e-06
1.248841038e-05
1.08917747e-05
1.115314555e-05
1.154562661e-05
9.994712774e-06
1.004625795e-05
1.009704134e-05
1.007670517e-05
8.305438769e-06
8.308758423e-06
6.818129205e-06
6.814787991e-06
6.805079491e-06
6.810177299e-06
5.586209299e-06
5.582455505e-06
4.582156325e-06
4.580464148e-06
4.576750225e-06
4.578535798e-06
3.764649047e-06
3.765175344e-06
1.277327747e-05
1.465248763e-05
9.6312522e-06
1.138212344e-05
1.417350747e-05
3.098133626e-06
3.099023876e-06
4.583931825e-06
4.585998643e-06
6.82082371e-06
6.822690747e-06
9.908949844e-06
9.776429264e-06
1.041836807e-05
1.342635137e-05
1.284755175e-05
8.267211159e-06
9.463777221e-06
9.37814737e-06
9.292755343e-06
1.098620618e-05
8.04274049e-06
8.822057751e-06
7.322484406e-06
1.047557565e-05
9.285848508e-06
9.270501295e-06
9.573027929e-06
8.232872567e-06
8.267001048e-06
8.29865349e-06
8.28628922e-06
6.82145838e-06
6.823036299e-06
5.598337216e-06
5.596280395e-06
5.590060261e-06
5.593304028e-06
4.589733797e-06
4.587584852e-06
3.768085804e-06
3.767471747e-06
3.765848638e-06
3.76661794e-06
3.098252626e-06
3.099233501e-06
1.170195583e-05
9.943403031e-06
1.193845876e-05
8.460305613e-06
9.605702944e-06
1.16223507e-05
3.768744897e-06
3.769638502e-06
5.60009576e-06
5.6014655e-06
8.173322364e-06
8.077203276e-06
8.56606908e-06
1.11916729e-05
1.044306813e-05
7.322650453e-06
8.039667143e-06
7.875591721e-06
8.270978127e-06
9.355443006e-06
6.822552961e-06
7.188819183e-06
6.442159434e-06
8.759969401e-06
7.876697207e-06
7.690295747e-06
7.92394e-06
6.77608068e-06
6.798411304e-06
6.81783147e-06
6.810474243e-06
5.601218182e-06
5.601919111e-06
4.59654124e-06
4.595519679e-06
4.592013145e-06
4.593830655e-06
3.771076208e-06
3.770109779e-06
3.098736501e-06
3.098872876e-06
3.098716376e-06
3.098774751e-06
9.80032873e-06
8.703717935e-06
9.748250238e-06
7.344654425e-06
8.078602851e-06
9.546332922e-06
3.098614501e-06
3.098676501e-06
4.59748214e-06
4.59831176e-06
6.735017636e-06
6.665419004e-06
7.042958751e-06
9.316611815e-06
8.510123696e-06
6.399207541e-06
6.799605273e-06
6.594490178e-06
7.252560269e-06
7.928349459e-06
5.76495804e-06
5.868458044e-06
5.605774899e-06
7.307135414e-06
6.654558368e-06
6.369175456e-06
6.549893938e-06
5.573366754e-06
5.58772736e-06
5.599406615e-06
5.595148056e-06
4.598309902e-06
4.598630591e-06
3.773856816e-06
3.773635955e-06
3.772180598e-06
3.772929775e-06
3.098484251e-06
3.098367751e-06
8.185900887e-06
7.527339112e-06
7.974434186e-06
6.319347342e-06
6.775487014e-06
7.852196145e-06
3.774129073e-06
3.774459922e-06
5.545343907e-06
5.495107353e-06
5.790579509e-06
7.747337449e-06
6.949860711e-06
5.535852164e-06
5.73049292e-06
5.508827532e-06
6.289230617e-06
6.693169844e-06
4.856113743e-06
4.797822557e-06
4.83718025e-06
6.083040738e-06
5.603963538e-06
5.268127782e-06
5.408060293e-06
4.581649158e-06
4.590647235e-06
4.597491335e-06
4.595114047e-06
3.774337089e-06
3.774547823e-06
3.098311051e-06
3.098684206e-06
3.098732376e-06
3.098704376e-06
6.822772212e-06
6.450938287e-06
6.533435319e-06
5.399710166e-06
5.669885072e-06
6.466362483e-06
3.098065334e-06
3.097976864e-06
4.562815144e-06
4.526734298e-06
4.760839261e-06
6.436707809e-06
5.685953568e-06
4.751879199e-06
4.815771307e-06
4.593174378e-06
5.407816821e-06
5.633034826e-06
4.080265649e-06
3.927457796e-06
4.146776978e-06
5.055792073e-06
4.706999211e-06
4.352798384e-06
4.461219868e-06
3.764734845e-06
3.770146485e-06
3.774020704e-06
3.772756792e-06
3.097584163e-06
3.097819141e-06
5.676779623e-06
5.48982737e-06
5.359740661e-06
4.588966069e-06
4.736107326e-06
5.330406246e-06
3.75236062e-06
3.726634132e-06
3.914179407e-06
5.343937239e-06
4.658996039e-06
4.054265693e-06
4.037783857e-06
3.8238284e-06
4.619446531e-06
4.729042995e-06
3.42139429e-06
3.218368766e-06
3.536641433e-06
4.196479196e-06
3.945299969e-06
3.593399385e-06
3.677424578e-06
3.092362581e-06
3.09539691e-06
3.09748643e-06
3.096858567e-06
4.716631527e-06
4.646388781e-06
4.401642311e-06
3.883233432e-06
3.950293388e-06
4.397658314e-06
3.084510653e-06
3.066354896e-06
3.218063216e-06
4.434061021e-06
3.82240072e-06
3.442541398e-06
3.379186297e-06
3.179365686e-06
3.925652432e-06
3.962129521e-06
2.864170886e-06
2.639617687e-06
3.003917869e-06
3.479484542e-06
3.30121349e-06
2.964396276e-06
3.029501873e-06
3.914394851e-06
3.915556103e-06
3.618069707e-06
3.274767656e-06
3.290910104e-06
3.630649484e-06
2.645731909e-06
3.677315447e-06
3.139381274e-06
2.911976709e-06
2.823732584e-06
2.640827503e-06
3.322378426e-06
3.314146499e-06
2.394467637e-06
2.543034215e-06
2.882468874e-06
2.758427526e-06
3.245578122e-06
3.288320305e-06
2.976219757e-06
2.754015725e-06
2.738905021e-06
2.999153887e-06
3.048505536e-06
2.580709132e-06
2.455638075e-06
2.35666852e-06
2.802569546e-06
2.768426785e-06
2.688987243e-06
2.753933783e-06
2.449763226e-06
2.310893772e-06
2.27766561e-06
2.478694427e-06
2.526392552e-06
2.357817882e-06
2.310033968e-06
2.226461906e-06
2.301248125e-06
3.098393626e-06
3.758125525e-06
3.098801251e-06
4.5583335e-06
3.758602778e-06
3.098824251e-06
5.5289297e-06
4.558886769e-06
3.758632331e-06
3.098498251e-06
6.706196115e-06
5.529562357e-06
4.558924255e-06
3.758255307e-06
3.098373126e-06
8.134140654e-06
6.706905805e-06
5.529609596e-06
4.558493122e-06
3.758111657e-06
3.098779001e-06
9.866142931e-06
8.134915389e-06
6.706964426e-06
5.529124204e-06
4.558330569e-06
3.758585895e-06
3.098654876e-06
1.196695005e-05
9.86695518e-06
8.134987449e-06
6.706430408e-06
5.528943445e-06
4.55887818e-06
3.758442744e-06
3.098328876e-06
1.451509924e-05
1.196774637e-05
9.867041765e-06
8.134418593e-06
6.706233762e-06
5.529566363e-06
4.558715367e-06
3.758064201e-06
3.098276376e-06
1.760585278e-05
1.451578392e-05
1.196784844e-05
9.866466125e-06
8.134212734e-06
6.706928418e-06
5.529384008e-06
4.558280548e-06
3.758003865e-06
3.098647001e-06
1.783843774e-05
1.760626758e-05
1.451590242e-05
1.196731646e-05
9.866263212e-06
8.134963698e-06
6.706728576e-06
5.528892353e-06
4.558212155e-06
3.758435775e-06
3.098791751e-06
1.783849476e-05
1.964612973e-05
1.76063999e-05
1.451549917e-05
1.196713677e-05
9.867038711e-06
8.134752749e-06
6.706183988e-06
5.528816102e-06
4.558710047e-06
3.758604246e-06
3.098395876e-06
1.783850674e-05
1.964589015e-05
2.232573583e-05
1.760626473e-05
1.451537637e-05
1.196787842e-05
9.86682736e-06
8.134167441e-06
6.706101519e-06
5.529381587e-06
4.558903939e-06
3.758143109e-06
3.098356251e-06
1.783847064e-05
1.964570849e-05
2.232533219e-05
2.530977947e-05
1.760625468e-05
1.451598075e-05
1.196768522e-05
9.866228192e-06
8.13408121e-06
6.706730497e-06
5.529601636e-06
4.558372844e-06
3.758095992e-06
3.098631626e-06
1.783845112e-05
1.964551473e-05
2.23246625e-05
2.530671586e-05
7.44953499e-05
1.76065487e-05
1.451583885e-05
1.196711985e-05
9.866142725e-06
8.134761341e-06
6.706975251e-06
5.528998833e-06
4.558317209e-06
3.758415341e-06
3.098541876e-06
1.783844462e-05
1.964536531e-05
2.232435773e-05
2.530748334e-05
8.102179291e-05
7.448701986e-05
1.760651213e-05
1.451538927e-05
1.196704568e-05
9.866845751e-06
8.135025132e-06
6.70630539e-06
5.5289343e-06
4.558683465e-06
3.758309937e-06
3.098247626e-06
1.783841751e-05
1.964521497e-05
2.232385245e-05
2.530511478e-05
0.0002259632494
8.100258947e-05
7.44796185e-05
1.760631363e-05
1.451534147e-05
1.19677177e-05
9.867118011e-06
8.134303372e-06
6.706231516e-06
5.529347607e-06
4.558560728e-06
3.757966464e-06
3.098410376e-06
1.783836212e-05
1.964509699e-05
2.232362539e-05
2.530576293e-05
0.0002258873632
8.099754804e-05
7.447479373e-05
2.530394829e-05
1.760631535e-05
1.451589172e-05
1.1967978e-05
9.866375317e-06
8.134220733e-06
6.706687992e-06
5.52920672e-06
4.558164273e-06
3.758154927e-06
3.098658126e-06
1.783834785e-05
1.964498557e-05
2.232324445e-05
8.098573444e-05
0.0002258407907
7.447064285e-05
2.530307708e-05
2.530443683e-05
1.760659331e-05
1.451610389e-05
1.196727295e-05
9.866286323e-06
8.134708554e-06
6.706529228e-06
5.528755867e-06
4.558380183e-06
3.758442762e-06
3.098687751e-06
1.783837366e-05
1.964490883e-05
2.232308889e-05
8.098301451e-05
0.0002258134148
8.097614037e-05
7.446815514e-05
2.530350428e-05
2.53025042e-05
1.760670021e-05
1.451553831e-05
1.196718202e-05
9.866782198e-06
8.134534948e-06
6.70602718e-06
5.528999467e-06
4.558710999e-06
3.758476944e-06
3.098546126e-06
1.783836926e-05
1.964484184e-05
2.232282415e-05
8.097108982e-05
0.0002257978813
8.0974873e-05
7.446607839e-05
2.530212117e-05
2.530283932e-05
2.232273098e-05
1.760643932e-05
1.451545276e-05
1.196764362e-05
9.86659981e-06
8.133991813e-06
6.706296143e-06
5.529374497e-06
4.558749967e-06
3.758311394e-06
3.098300126e-06
1.783831735e-05
1.964479195e-05
8.097058315e-05
7.446496561e-05
0.0002257891127
8.096852648e-05
2.530241262e-05
2.530190591e-05
2.232249216e-05
2.232254912e-05
1.760637264e-05
1.451580728e-05
1.196746381e-05
9.866038396e-06
8.134280324e-06
6.706712743e-06
5.52941807e-06
4.558558563e-06
3.758024999e-06
3.098763376e-06
1.78382637e-05
1.964473219e-05
7.446402068e-05
2.530178825e-05
2.530213292e-05
8.096710935e-05
0.0002257839412
8.096829239e-05
7.446353904e-05
2.232237189e-05
2.232234262e-05
1.760650242e-05
1.451565231e-05
1.196692846e-05
9.866333807e-06
8.134729649e-06
6.706760855e-06
5.529200209e-06
4.558229217e-06
3.758564093e-06
3.098561751e-06
1.783822813e-05
1.964468371e-05
2.530198475e-05
2.530175508e-05
2.232226806e-05
2.232226845e-05
8.096690288e-05
7.446276315e-05
8.096615853e-05
0.0002257806282
7.446305894e-05
2.530174618e-05
2.53018994e-05
1.964463459e-05
1.760640807e-05
1.45152182e-05
1.196720665e-05
9.866796991e-06
8.134781247e-06
6.706517728e-06
5.528826849e-06
4.558849197e-06
3.758329538e-06
3.098261876e-06
1.783818395e-05
2.23222402e-05
2.23222622e-05
1.964458453e-05
1.964460427e-05
7.446242326e-05
2.530175071e-05
2.530181814e-05
7.446217338e-05
8.096592955e-05
8.09654344e-05
0.0002257783569
2.530185438e-05
2.530175003e-05
2.23222841e-05
2.232225801e-05
1.760619874e-05
1.451543795e-05
1.196764894e-05
9.866850609e-06
8.1345179e-06
6.706103557e-06
5.529529246e-06
4.558579589e-06
3.757981077e-06
3.098421126e-06
1.783814656e-05
1.964458968e-05
1.964460573e-05
2.530179706e-05
2.530175346e-05
2.232235497e-05
2.232232643e-05
2.530174981e-05
2.53017793e-05
7.446189931e-05
8.096520243e-05
7.446168584e-05
0.000225776779
8.096484931e-05
2.232228937e-05
2.232231229e-05
1.964464716e-05
1.964462905e-05
1.760629483e-05
1.451580077e-05
1.196770164e-05
9.866577792e-06
8.134072999e-06
6.706882364e-06
5.529224084e-06
4.558178943e-06
3.758167133e-06
3.098682751e-06
1.783815429e-05
1.783820025e-05
2.232237862e-05
2.232241255e-05
1.96447648e-05
1.964472442e-05
2.232246608e-05
2.530176629e-05
2.232243703e-05
2.530174565e-05
7.446146887e-05
2.530174256e-05
2.530175521e-05
8.096435742e-05
0.0002257758804
8.09646168e-05
7.446127109e-05
1.964466893e-05
1.964469295e-05
1.783821651e-05
1.783822738e-05
1.760647952e-05
1.451584621e-05
1.196743885e-05
9.866122158e-06
8.134909239e-06
6.706544412e-06
5.528770624e-06
4.558394346e-06
3.758472913e-06
3.098836751e-06
1.964481907e-05
1.964487931e-05
1.783830083e-05
1.783827892e-05
1.964498107e-05
2.232249119e-05
1.964493294e-05
2.232251756e-05
2.530175156e-05
2.530174063e-05
2.232256789e-05
2.232254199e-05
8.096419199e-05
7.446083669e-05
0.0002257757321
8.096410279e-05
7.446105149e-05
2.530172711e-05
2.530174635e-05
1.783823435e-05
1.783825595e-05
1.760639708e-05
1.76065101e-05
1.451562941e-05
1.196701127e-05
9.866977888e-06
8.134546893e-06
6.706041666e-06
5.529016086e-06
4.55874791e-06
3.75865298e-06
3.098341501e-06
1.783837141e-05
1.783848204e-05
1.760623459e-05
1.760641058e-05
1.783856499e-05
1.964503139e-05
1.783853993e-05
1.964508288e-05
2.232259379e-05
2.232262184e-05
1.964517574e-05
1.964513201e-05
7.446065124e-05
2.530164107e-05
2.5301679e-05
8.096426951e-05
0.0002257761047
8.096412765e-05
7.44605519e-05
2.530172403e-05
2.530169352e-05
2.232266412e-05
2.232264446e-05
1.760625959e-05
1.760652229e-05
1.45152941e-05
1.196781538e-05
9.866607651e-06
8.134006558e-06
6.706316177e-06
5.529419243e-06
4.55895614e-06
3.758077676e-06
3.098253876e-06
1.760637762e-05
1.760662494e-05
1.451524227e-05
1.451565422e-05
1.760646199e-05
1.783861815e-05
1.76067456e-05
1.783870932e-05
1.964522356e-05
1.964527873e-05
1.78387886e-05
1.783877411e-05
2.530162468e-05
2.530158662e-05
2.232265645e-05
2.232266821e-05
8.096448463e-05
7.446073126e-05
0.0002257763929
8.096472586e-05
7.446057033e-05
2.530154384e-05
2.530157626e-05
2.23226732e-05
2.232267526e-05
1.964537139e-05
1.964532948e-05
1.451592608e-05
1.196746813e-05
9.866054841e-06
8.134305108e-06
6.706767236e-06
5.529656791e-06
4.55829503e-06
3.757976779e-06
3.098749126e-06
1.451549654e-05
1.451592016e-05
1.196694762e-05
1.451548237e-05
1.760644546e-05
1.451615628e-05
1.760680644e-05
1.783883705e-05
1.783893256e-05
1.760662397e-05
1.760686905e-05
2.232264104e-05
2.232262104e-05
1.96454339e-05
1.964543498e-05
7.446099749e-05
2.530156348e-05
2.5301558e-05
8.0964984e-05
0.0002257759848
8.096492586e-05
7.446129944e-05
2.53015466e-05
2.530153124e-05
2.232257016e-05
2.232259745e-05
1.964540281e-05
1.96454244e-05
1.783904303e-05
1.78390121e-05
9.866365271e-06
8.134796037e-06
6.707032539e-06
5.528908787e-06
4.558180654e-06
3.758554289e-06
3.098768251e-06
1.196724843e-05
1.196774744e-05
1.196717883e-05
1.451538821e-05
1.19680345e-05
1.451612208e-05
1.760656837e-05
1.760692486e-05
1.451561495e-05
1.451618598e-05
1.96454323e-05
1.964542354e-05
1.783912583e-05
1.78391495e-05
2.530160861e-05
2.530163279e-05
2.232249698e-05
2.23225046e-05
8.096493023e-05
7.446166793e-05
0.0002257748217
8.096464838e-05
7.44615473e-05
2.530170758e-05
2.530167989e-05
2.232254245e-05
2.232252136e-05
1.964536319e-05
1.964540165e-05
1.783908669e-05
1.783913473e-05
1.760686493e-05
1.760703799e-05
9.866877861e-06
8.135083919e-06
6.706204406e-06
5.52878088e-06
4.558846748e-06
3.758577792e-06
3.098349876e-06
9.866266503e-06
1.196704591e-05
9.867176752e-06
1.19679464e-05
1.451542429e-05
1.451613405e-05
1.196728441e-05
1.19680068e-05
1.783913578e-05
1.783916358e-05
1.760684552e-05
1.760708876e-05
2.232249422e-05
2.232249868e-05
1.964518883e-05
1.964522887e-05
7.446160486e-05
2.530180738e-05
2.530178582e-05
8.096379316e-05
0.0002257734466
8.096430749e-05
7.44613414e-05
2.530174527e-05
2.530177012e-05
2.232250533e-05
2.23225013e-05
1.96453171e-05
1.964527254e-05
1.783906996e-05
1.783915105e-05
1.760684935e-05
1.760713635e-05
1.451584183e-05
1.451628293e-05
8.134194476e-06
6.706064557e-06
5.52953795e-06
4.558875258e-06
3.75809203e-06
3.098190501e-06
9.866119286e-06
9.867061498e-06
1.196702859e-05
1.196789528e-05
9.866348901e-06
9.867116064e-06
1.760684307e-05
1.760713207e-05
1.451573981e-05
1.451625128e-05
1.964515366e-05
1.964512656e-05
1.783881082e-05
1.783889364e-05
2.530179146e-05
2.530179727e-05
2.232254129e-05
2.232252683e-05
8.096336975e-05
7.446037563e-05
8.096291744e-05
0.0002257725373
7.446090516e-05
2.530171837e-05
2.530173911e-05
2.23225095e-05
2.232251473e-05
1.964506298e-05
1.964509493e-05
1.78389998e-05
1.783894856e-05
1.760684198e-05
1.760711267e-05
1.45157466e-05
1.451637009e-05
1.196748797e-05
1.196805469e-05
8.134047009e-06
6.706907363e-06
5.529572532e-06
4.558317713e-06
3.757908013e-06
3.098665126e-06
8.134958684e-06
9.866070198e-06
9.866975449e-06
8.13425695e-06
8.135006953e-06
1.451572942e-05
1.451637854e-05
1.196734311e-05
1.196797623e-05
1.783875805e-05
1.783873038e-05
1.760652553e-05
1.760675183e-05
2.232255555e-05
2.232256312e-05
1.964504229e-05
1.964501964e-05
7.445984179e-05
2.530143726e-05
2.53014736e-05
7.445938666e-05
8.096264854e-05
8.096246527e-05
2.530162318e-05
2.530158684e-05
2.232253907e-05
2.23225605e-05
1.964503307e-05
1.964501781e-05
1.783860068e-05
1.783868341e-05
1.76066507e-05
1.760681494e-05
1.451588506e-05
1.451636205e-05
1.196735217e-05
1.196812966e-05
9.866525168e-06
9.867131954e-06
6.706949049e-06
5.528941798e-06
4.558107259e-06
3.758461395e-06
3.098736501e-06
8.133980152e-06
8.134856143e-06
6.706250317e-06
1.196732911e-05
1.196814263e-05
9.866363205e-06
9.867028857e-06
1.760644593e-05
1.76066425e-05
1.451558951e-05
1.451598855e-05
1.964507879e-05
1.964512291e-05
1.783852872e-05
1.783851269e-05
2.530132823e-05
2.530129884e-05
2.23224252e-05
2.232245248e-05
2.530117644e-05
2.530120199e-05
7.44590495e-05
7.445887065e-05
2.232251376e-05
2.232247876e-05
1.964516768e-05
1.96451527e-05
1.783853839e-05
1.783850904e-05
1.760636509e-05
1.760658159e-05
1.451556237e-05
1.451604931e-05
1.196756376e-05
1.196812959e-05
9.866373928e-06
9.86719351e-06
8.134405939e-06
8.135001563e-06
5.528705116e-06
4.558746083e-06
3.758546001e-06
3.098402126e-06
6.705990095e-06
6.706799736e-06
9.86634796e-06
9.867207178e-06
8.134242266e-06
8.134889169e-06
1.451547574e-05
1.451598319e-05
1.196729975e-05
1.196777252e-05
1.783860667e-05
1.783871823e-05
1.760628742e-05
1.760628235e-05
2.232241104e-05
2.232239437e-05
1.964524877e-05
1.964521264e-05
2.232235399e-05
2.530109756e-05
2.232237898e-05
2.530108086e-05
2.53010261e-05
2.530102635e-05
1.964517669e-05
1.964519023e-05
1.78388027e-05
1.783878315e-05
1.760621936e-05
1.760633385e-05
1.451553748e-05
1.451590648e-05
1.196718681e-05
1.19678274e-05
9.866614373e-06
9.867197671e-06
8.134254779e-06
8.135050484e-06
6.706374291e-06
6.706930177e-06
5.52943176e-06
4.558845033e-06
3.758157953e-06
3.098312876e-06
8.134226653e-06
8.135063534e-06
6.70621747e-06
6.706817885e-06
1.196717495e-05
1.196782881e-05
9.866385498e-06
9.866871537e-06
1.760631935e-05
1.760668643e-05
1.451546149e-05
1.451547578e-05
1.964529893e-05
1.9645353e-05
1.783901308e-05
1.783894495e-05
1.964540899e-05
2.232233313e-05
1.96453913e-05
2.232230658e-05
2.232226666e-05
2.232228665e-05
1.783881974e-05
1.783888717e-05
1.760659415e-05
1.760691222e-05
1.451529598e-05
1.451561736e-05
1.19673167e-05
1.196774855e-05
9.866227666e-06
9.866919126e-06
8.134496605e-06
8.135056735e-06
6.706231083e-06
6.70696844e-06
5.529043381e-06
5.52954621e-06
4.558400028e-06
3.758055107e-06
3.098747626e-06
6.706202633e-06
6.706979863e-06
5.528898291e-06
5.529438801e-06
9.866261825e-06
9.866962436e-06
8.134302268e-06
8.134768221e-06
1.451537609e-05
1.451603582e-05
1.196724709e-05