/*--------------------------------*- C++ -*----------------------------------*\
  =========                 |
  \\      /  F ield         | OpenFOAM: The Open Source CFD Toolbox
   \\    /   O peration     | Website:  https://openfoam.org
    \\  /    A nd           | Version:  8
     \\/     M anipulation  |
\*---------------------------------------------------------------------------*/






FoamFile
{
    version     2.0;
    format      ascii;
    class       volScalarField;
    location    "0";
    object      pDDES;
}
// * * * * * * * * * * * * * * * * * * * * * * * * * * * * * * * * * * * * * //

dimensions      [0 2 -2 0 0 0 0];


internalField   nonuniform List<scalar> 
18009
(
0.0001029285777
0.0001044097007
0.0001055172106
0.0001012592838
0.0001064431344
0.0001045306053
0.0001083262468
0.0001083027601
9.638972551e-05
0.0001029196646
0.000109075685
0.0001070931612
0.0001090994847
0.0001060338691
0.0001103275717
0.0001099669826
9.55145515e-05
9.807734023e-05
0.0001061556977
0.0001045844183
0.0001107343414
0.0001098747089
0.0001080336224
0.000109850931
0.0001110962548
0.0001121765163
0.0001118704313
9.887102351e-05
9.976178262e-05
0.0001086886477
0.0001076652916
0.000106227526
0.000107787193
0.000112627029
0.00011063274
0.0001118589134
0.0001106566415
0.0001114947809
0.0001129331358
0.000113394497
0.0001130115488
0.0001014284353
0.0001021781136
0.0001114355764
0.0001096346314
0.000111411704
0.0001094030886
0.0001092823222
0.0001078534988
0.0001102908936
0.0001137655345
0.0001122684698
0.0001136865612
0.0001126336283
0.0001133786354
0.0001141446119
0.0001139558663
0.0001135852071
0.0001030793937
0.0001054726745
0.0001047164842
0.0001121926543
0.000113393733
0.0001122168906
0.0001130325327
0.0001118785876
0.0001108833458
0.000111229936
0.0001094597756
0.0001110023077
0.000113004302
0.0001129805314
0.0001143297195
0.0001141426619
0.0001148956944
0.0001144516355
0.0001145139759
0.0001147035218
0.0001159352905
0.0001155696373
0.000107424923
0.0001080207876
0.000106363208
0.0001138045191
0.0001152093173
0.0001141740286
0.0001149001764
0.000114559698
0.0001145359856
0.0001128069416
0.0001137585641
0.0001137824438
0.000111076457
0.0001125813433
0.0001124636983
0.0001134476843
0.0001149457821
0.0001145800416
0.0001163037887
0.0001152714176
0.0001154542915
0.0001156541693
0.0001150772441
0.0001166722432
0.0001166551374
0.0001162909757
0.0001108652868
0.0001114329643
0.0001097092172
0.0001127260402
0.0001156619255
0.0001164081041
0.0001159761159
0.000116026029
0.0001164783389
0.0001153047706
0.0001161161999
0.0001153284466
0.0001153534249
0.0001157168226
0.0001140471068
0.0001141668399
0.0001150087992
0.000114367358
0.0001160963002
0.0001160729444
0.0001167328301
0.0001164255518
0.0001170204778
0.0001158331579
0.0001174153876
0.0001162107947
0.0001170436226
0.0001173872079
0.0001171313634
0.0001167674927
0.0001143509508
0.0001131740355
0.0001149286109
0.00011614096
0.0001144142298
0.0001157972729
0.0001156735671
0.0001167832088
0.0001169618336
0.000117166026
0.0001165859649
0.0001168811723
0.0001182397973
0.0001179341198
0.0001172396296
0.0001171862823
0.0001174913559
0.0001159271706
0.0001165779468
0.0001176352525
0.0001176116857
0.0001168455929
0.000116869327
0.0001179944884
0.0001176325386
0.0001179167375
0.0001175366488
0.000117494943
0.0001177886879
0.0001181266853
0.0001181595289
0.0001177562081
0.0001178601087
0.0001174192075
0.0001170572941
0.0001178270468
0.0001166912407
0.0001184577341
0.0001178823077
0.0001196417579
0.0001191814881
0.0001190527764
0.0001174712015
0.0001173443015
0.0001182032283
0.0001175304933
0.0001173385317
0.0001188991373
0.000117714415
0.0001185293368
0.0001186857698
0.000119403805
0.0001190293697
0.0001189899267
0.0001182877459
0.0001186648005
0.0001183761196
0.0001183999993
0.0001191915653
0.0001191673655
0.000119512828
0.0001191571864
0.0001184023859
0.000118763317
0.0001197350794
0.000119431832
0.0001184621797
0.0001180887484
0.0001177824379
0.0001184970024
0.0001185962174
0.000118864511
0.0001182288615
0.0001181473854
0.0001175727302
0.0001172105985
0.0001213143041
0.0001202185449
0.0001219862752
0.0001214128715
0.0001231874921
0.0001207764435
0.000120906574
0.0001226554014
0.0001225234155
0.0001215646262
0.000120866076
0.000119867349
0.0001191785341
0.0001207882524
0.0001207635505
0.0001199814433
0.0001199567487
0.0001192681884
0.0001195994773
0.0001196349549
0.0001192331183
0.0001197711681
0.0001199410035
0.0001195729492
0.0001201483465
0.0001188349415
0.0001192052077
0.0001199155813
0.0001202791609
0.0001210608534
0.0001206896923
0.0001212351854
0.000120924793
0.0001201864652
0.0001204938162
0.0001208906397
0.0001205128574
0.0001203690917
0.0001200031838
0.0001179356113
0.0001189653194
0.0001188807801
0.0001193319767
0.0001185135698
0.0001183003042
0.0001176419028
0.0001172798802
0.0001249050692
0.0001237720862
0.0001255937241
0.0001249701018
0.0001267677144
0.0001242885774
0.0001244205778
0.000126188068
0.0001260553981
0.0001225662418
0.0001232708455
0.0001250155619
0.000124294369
0.0001240456622
0.0001240718993
0.000123244914
0.0001232717768
0.0001224347798
0.0001224092994
0.000121572768
0.0001215979282
0.0001226371969
0.0001222604478
0.0001218463658
0.0001214752265
0.0001199659891
0.0001200636034
0.0001203305437
0.0001196977464
0.0001203103166
0.0001218207472
0.0001214598014
0.0001206806992
0.0001207342284
0.0001210979826
0.0001216800738
0.000121991281
0.0001227579924
0.0001224425505
0.0001223653817
0.0001219916157
0.0001212599527
0.0001216334495
0.0001214215736
0.0001210500413
0.0001210588889
0.0001206957822
0.0001180046529
0.0001192476921
0.0001190316689
0.0001196145531
0.0001186663503
0.0001183694694
0.0001176675069
0.0001173054625
0.0001286423358
0.0001274527167
0.0001293546666
0.000128597967
0.0001304797479
0.0001278372802
0.0001279716671
0.0001297765848
0.0001296402188
0.0001260486315
0.00012677224
0.0001285314793
0.0001278047421
0.0001248827466
0.0001249089255
0.0001257651311
0.0001257390977
0.0001274888637
0.0001274623792
0.0001265961328
0.0001266227046
0.000125518578
0.0001258569828
0.0001247204054
0.0001250917703
0.0001242593862
0.0001238835248
0.0001230603957
0.0001234435185
0.0001243197185
0.0001240007841
0.0001235366944
0.0001232206705
0.0001204274595
0.0001203436113
0.0001207912137
0.0001199804829
0.0001221846323
0.0001225023734
0.0001221431303
0.0001225488959
0.0001214226359
0.0001217831086
0.0001227365719
0.0001231179049
0.0001238774857
0.0001234901138
0.0001229026675
0.0001225315209
0.0001217939571
0.000122165744
0.0001232825452
0.0001229156478
0.0001215168013
0.0001211540366
0.0001180301406
0.0001193984208
0.0001191008996
0.0001197651727
0.000118735159
0.0001183948843
0.0001176744699
0.0001173132187
0.000131290697
0.0001332516986
0.0001324086479
0.0001343799522
0.0001314829569
0.0001316232083
0.000133528898
0.0001333844557
0.0001295800175
0.0001303153986
0.0001321211894
0.0001313737012
0.0001283286838
0.0001283552992
0.0001292239758
0.0001291974477
0.000130968212
0.0001309410873
0.0001300666772
0.000130093511
0.000126319399
0.0001267097396
0.0001275596587
0.0001271584479
0.0001292714151
0.0001288624626
0.0001280099095
0.0001284146856
0.0001271567744
0.0001275122922
0.0001263693121
0.0001267498301
0.0001259201963
0.0001255829848
0.0001247886685
0.0001251129434
0.0001254291419
0.0001250350324
0.0001246530592
0.000124261147
0.000120707773
0.0001204945147
0.0001210702467
0.0001201305568
0.0001228636684
0.0001229539921
0.0001225957094
0.0001232258655
0.0001218770194
0.0001222374412
0.0001232772338
0.0001236523531
0.0001244109735
0.000124029335
0.0001247545006
0.0001243872539
0.0001236511307
0.0001240190613
0.000123955193
0.0001235901873
0.0001217935423
0.0001214324875
0.0001180369873
0.0001194668293
0.0001191263873
0.0001198330428
0.0001187601301
0.0001184010907
0.0001176764781
0.0001173147903
0.0001363832998
0.0001384132775
0.0001353359985
0.0001354837877
0.000137474548
0.0001373244304
0.0001332069805
0.0001339800365
0.0001359026064
0.0001351045503
0.0001318281284
0.0001318554714
0.000132743502
0.0001327163482
0.0001345385535
0.0001345106721
0.0001336044224
0.0001336320129
0.0001297223644
0.0001301309094
0.0001309884829
0.0001305790793
0.0001327175996
0.000132302448
0.0001314430265
0.0001318511495
0.0001279868011
0.0001283445599
0.0001291745575
0.0001288327039
0.0001308619976
0.0001305179758
0.0001296757546
0.0001300169679
0.0001281875157
0.0001285872277
0.0001273895614
0.000127792955
0.0001269977511
0.000126599989
0.0001258161064
0.0001262132282
0.000125956285
0.0001255685929
0.0001251818758
0.0001247970358
0.0001208576432
0.0001205632216
0.0001212200732
0.0001201988853
0.00012331373
0.000123228383
0.0001228704205
0.0001236743119
0.000122153695
0.0001225119631
0.000125124905
0.000125494742
0.0001262440492
0.0001258695847
0.0001254220988
0.0001250555069
0.0001243215374
0.0001246884349
0.0001243994193
0.0001240365964
0.0001219418773
0.0001215808734
0.0001180381951
0.0001194918805
0.0001191342089
0.0001198577229
0.0001187663584
0.0001184019202
0.0001393463608
0.0001394987339
0.0001415515726
0.000141396682
0.0001370546524
0.0001378684829
0.000139868047
0.0001390422403
0.0001354240521
0.0001354525448
0.0001363889023
0.0001363601186
0.0001383025519
0.000138272866
0.0001373100386
0.0001373396663
0.0001331867825
0.000133604306
0.00013447745
0.000134061469
0.0001362620387
0.000135834227
0.0001349437371
0.0001353668922
0.0001313690736
0.000131711422
0.0001325561898
0.0001322140452
0.0001342659816
0.0001339139853
0.0001330648374
0.0001334112312
0.0001290002838
0.0001294150279
0.0001302423771
0.0001298221177
0.0001319185249
0.0001314919791
0.0001306551421
0.00013107837
0.0001287054329
0.0001291074441
0.000127909705
0.0001283066085
0.0001275159593
0.0001271250512
0.000126345054
0.0001267354673
0.0001277642732
0.0001273825765
0.0001270001521
0.0001266220352
0.00012092611
0.0001205874141
0.0001212873904
0.0001202231579
0.000123587175
0.0001233760267
0.0001230178023
0.0001239463745
0.0001223011932
0.000122659374
0.000125789622
0.0001261585421
0.0001269041095
0.0001265308674
0.0001258611737
0.0001254963427
0.0001247645123
0.0001251295034
0.0001246693864
0.0001243075967
0.0001220089325
0.0001216477322
0.000119500095
0.000119135897
0.0001198654863
0.0001187678135
0.0001410584955
0.0001418983738
0.0001439716434
0.0001431130804
0.0001392394042
0.0001392696577
0.0001402571506
0.0001402268972
0.0001422206842
0.0001421892084
0.0001412084384
0.0001412393176
0.0001367420773
0.0001371771941
0.0001381027832
0.0001376596192
0.0001399992616
0.0001395534491
0.0001386035729
0.0001390549151
0.0001347814541
0.0001351337996
0.0001359970192
0.0001356445864
0.0001377603476
0.0001373996201
0.0001365192438
0.0001368764933
0.0001323341276
0.0001327593054
0.0001335961279
0.0001331725362
0.0001352860418
0.0001348563528
0.0001340114686
0.0001344394987
0.000129514141
0.0001299224241
0.0001307464845
0.0001303325262
0.0001324143377
0.0001319954608
0.0001311617962
0.0001315794361
0.0001304707257
0.0001308652281
0.0001296872651
0.0001300756849
0.0001292996603
0.0001289153734
0.0001281483128
0.0001285308535
0.0001284148166
0.0001280338911
0.0001276555558
0.0001272790396
0.0001209500842
0.0001205944427
0.0001213106516
0.0001202303756
0.0001237338147
0.0001234427473
0.0001230846538
0.0001240926358
0.000122368132
0.0001227261673
0.0001262284641
0.0001265963801
0.0001273388625
0.000126966901
0.0001261268335
0.0001257615513
0.0001250322239
0.0001253968949
0.0001248135668
0.0001244527957
0.0001220334161
0.000121671379
0.0001195028599
0.0001198680038
0.0001432122808
0.0001432436402
0.0001442661451
0.0001442345529
0.0001463365479
0.0001463038934
0.0001452679426
0.0001453003206
0.0001405060611
0.0001409664983
0.0001419330365
0.0001414788276
0.0001438851177
0.0001434074074
0.0001424506481
0.0001428913092
0.0001382961345
0.0001386630756
0.0001395699655
0.0001391973492
0.0001414391882
0.0001410575496
0.0001401231857
0.0001405052026
0.0001357085712
0.0001361416798
0.0001370003592
0.0001365642383
0.0001387476368
0.0001383018389
0.0001374296698
0.0001378708112
0.0001328330254
0.0001332508982
0.0001340834278
0.0001336670539
0.0001357635338
0.0001353412081
0.0001345018245
0.0001349216909
0.000131264751
0.00013166602
0.0001324751793
0.0001320703886
0.0001341127208
0.0001337023568
0.0001328833896
0.0001332920219
0.0001311062078
0.0001314990805
0.0001303266909
0.0001307150524
0.0001299419382
0.0001295586844
0.0001287956256
0.0001291760564
0.000128841144
0.0001284630998
0.0001280862198
0.0001277116535
0.0001209561669
0.0001205962253
0.0001213169817
0.0001202326457
0.0001238009863
0.0001234676311
0.0001231098431
0.0001241587015
0.0001223932777
0.0001227516914
0.0001264935127
0.0001268613269
0.0001276002731
0.0001272305235
0.0001262679871
0.0001259034761
0.0001251760405
0.0001255390816
0.0001248787448
0.0001245184976
0.000122040874
0.0001216779492
0.0001444410591
0.0001449129195
0.0001459297928
0.0001454465528
0.0001480059582
0.0001475098543
0.0001464830566
0.0001469675772
0.0001420011249
0.000142392164
0.0001433491561
0.0001429590047
0.0001453016594
0.0001448669937
0.0001439180196
0.0001443250221
0.0001391881233
0.0001396359876
0.0001405279618
0.0001400730107
0.0001423776703
0.0001419071923
0.0001409821998
0.0001414487051
0.0001361880568
0.0001366140059
0.0001374695712
0.0001370398822
0.0001392089762
0.0001387704688
0.0001379012974
0.0001383352937
0.0001345236233
0.0001349323575
0.000135747614
0.0001353409607
0.0001373923296
0.0001369794918
0.0001361583854
0.0001365674398
0.0001318953582
0.0001322943135
0.0001330985979
0.0001326954371
0.0001347216603
0.0001343150798
0.0001335018023
0.0001339072915
0.0001315240224
0.0001319150615
0.0001307483763
0.0001311337837
0.0001303633908
0.0001299817814
0.0001292204979
0.0001296000555
0.000129097898
0.0001287209598
0.0001283457532
0.0001279726421
0.0001209582551
0.000121318546
0.0001238252153
0.0001234745141
0.0001231177739
0.0001241823484
0.0001224013104
0.0001227595931
0.0001266346517
0.0001270015055
0.0001277383271
0.0001273694215
0.0001263317245
0.0001259671553
0.0001252407819
0.0001256034884
0.0001249016786
0.0001245417661
0.0001220421982
0.0001216796809
0.0001458873448
0.0001462983928
0.0001473091397
0.0001468906848
0.000149383719
0.0001489459246
0.0001479163911
0.0001483522792
0.0001428421965
0.0001433188445
0.00014426712
0.0001437860192
0.0001461924985
0.0001457004837
0.0001447418035
0.000145225873
0.0001396513399
0.0001400967158
0.0001409906108
0.0001405382645
0.0001428297401
0.0001423659123
0.0001414463768
0.0001419055334
0.0001378081797
0.0001382253104
0.0001390671678
0.0001386443619
0.0001407798845
0.0001403487258
0.000139492171
0.0001399187604
0.0001351290703
0.0001355349377
0.0001363450428
0.0001359391899
0.0001379752357
0.0001375653228
0.0001367500081
0.0001371569233
0.0001323096803
0.0001327074133
0.0001335068519
0.0001331071253
0.0001351219835
0.0001347170619
0.000133909256
0.0001343119657
0.0001317740389
0.0001321654854
0.0001310007501
0.0001313867397
0.0001306176127
0.0001302364399
0.0001294759277
0.0001298560383
0.0001292343222
0.0001288581261
0.0001284823375
0.0001281103032
0.0001238307741
0.000123475329
0.0001231190108
0.0001241869031
0.0001224026928
0.000122761121
0.0001266977633
0.0001270648208
0.0001278009586
0.000127432344
0.0001263546292
0.0001259903656
0.0001252642833
0.0001256268006
0.0001249066263
0.0001245460735
0.000146683291
0.0001471866708
0.0001481945801
0.0001476828038
0.000150269625
0.0001497438061
0.0001487051923
0.0001492303272
0.0001432952413
0.0001437628525
0.000144706064
0.0001442316861
0.000146632563
0.0001461425127
0.0001451818971
0.0001456636819
0.0001412145211
0.0001416505111
0.0001425329247
0.0001420900226
0.0001443328365
0.0001438792387
0.0001429796393
0.0001434283477
0.0001383877534
0.000138801217
0.0001396367443
0.0001392187114
0.0001413424179
0.0001409125689
0.0001400599867
0.0001404848881
0.000135525901
0.0001359293237
0.0001367355726
0.0001363329939
0.0001383574709
0.0001379497116
0.0001371396356
0.0001375431602
0.0001325598423
0.0001329558581
0.0001337530557
0.0001333541441
0.0001353618718
0.0001349586237
0.0001341533643
0.000134555361
0.0001319073053
0.0001322989119
0.0001311355736
0.0001315198024
0.0001307521743
0.00013037186
0.0001296121482
0.0001299921423
0.0001292951929
0.0001289195061
0.0001285432663
0.0001281716977
0.0001238311525
0.0001241870195
0.0001267207263
0.0001270870562
0.0001278233831
0.0001274547685
0.0001263600279
0.0001259959972
0.0001252688235
0.000125632534
0.0001249064517
0.0001245461899
0.000147125189
0.0001476225298
0.0001486277324
0.0001481227373
0.000150685024
0.0001501661172
0.0001491364383
0.0001496527984
0.0001447899704
0.0001452474389
0.0001461735083
0.0001457087346
0.000148073741
0.000147592029
0.0001466418908
0.0001471149444
0.0001417742897
0.0001422071946
0.0001430831035
0.0001426440285
0.0001448708063
0.0001444201771
0.0001435268496
0.0001439718617
0.0001387676602
0.000139180047
0.0001400109904
0.0001395945292
0.0001417100138
0.0001412819256
0.00014043173
0.0001408550597
0.0001357649744
0.0001361671893
0.0001369704696
0.000136568473
0.0001385865617
0.0001381805341
0.0001373724517
0.0001377750013
0.0001326925703
0.0001330880623
0.0001338834263
0.0001334859116
0.0001354894048
0.0001350862003
0.0001342831238
0.0001346839272
0.0001319674775
0.0001323591714
0.0001311959495
0.000131580251
0.0001308127539
0.0001304318575
0.0001296726841
0.0001300527802
0.0001293167734
0.0001289414504
0.0001285650796
0.0001281942241
0.0001267260959
0.0001270916837
0.0001278290729
0.0001274599636
0.0001263606537
0.000125996361
0.0001252692746
0.0001256324031
0.0001485594694
0.0001490482828
0.0001500396756
0.0001495429606
0.0001520609512
0.0001515505573
0.0001505399559
0.0001510429283
0.0001453246223
0.0001457799372
0.0001466991671
0.0001462381915
0.0001485886023
0.000148110048
0.0001471652213
0.0001476351172
0.0001421403285
0.0001425720693
0.0001434441074
0.0001430064731
0.0001452232391
0.000144773745
0.0001438845065
0.0001443284564
0.0001389951794
0.0001394065621
0.0001402351481
0.0001398196036
0.0001419296168
0.0001415021688
0.000140654709
0.0001410768164
0.00013589226
0.0001362932235
0.0001370936516
0.0001366939978
0.0001387075899
0.0001383024064
0.000137494877
0.0001378978923
0.0001327522041
0.000133147274
0.000133942609
0.0001335450943
0.000135546783
0.0001351437531
0.0001343417098
0.0001347421639
0.0001319890871
0.0001323808101
0.0001312169625
0.0001316015405
0.0001308336941
0.0001304527686
0.0001296932896
0.0001300731237
0.0001293215319
0.000128947082
0.0001285706676
0.0001282007725
0.0001267261832
0.0001270924113
0.0001278304117
0.0001274597307
0.0001490713039
0.000149557367
0.0001505411929
0.0001500482904
0.0001525502594
0.0001520419755
0.0001510385337
0.0001515374606
0.0001456750178
0.0001461288775
0.0001470450225
0.000146585473
0.0001489264105
0.0001484499662
0.0001475084719
0.0001479767379
0.000142359233
0.000142790348
0.0001436598395
0.0001432234567
0.0001454342564
0.0001449862903
0.0001440993219
0.0001445417001
0.0001391157566
0.0001395264117
0.000140353688
0.0001399387838
0.0001420453627
0.0001416183368
0.0001407733653
0.0001411938865
0.0001359485759
0.000136349583
0.0001371491089
0.0001367504301
0.0001387617813
0.0001383572671
0.0001375498687
0.0001379521273
0.0001327736099
0.0001331682288
0.0001339636074
0.0001335659617
0.0001355672721
0.0001351647516
0.0001343629992
0.0001347631041
0.0001319936127
0.0001323855686
0.0001312207169
0.0001316056587
0.0001308379142
0.0001304590696
0.0001296980481
0.0001300779986
0.0001293221139
0.0001289468928
0.0001285719773
0.000128200787
0.0001494067255
0.0001498909405
0.0001508699206
0.0001503788517
0.0001528699213
0.0001523639221
0.0001513642928
0.0001518622885
0.0001458849874
0.000146338105
0.0001472525328
0.0001467939001
0.0001491289586
0.0001486537803
0.0001477147598
0.0001481819636
0.0001424743095
0.0001429050026
0.0001437740138
0.0001433383732
0.0001455461024
0.0001450983837
0.0001442129287
0.0001446548849
0.0001391698606
0.0001395804575
0.000140406788
0.0001399916364
0.0001420968911
0.0001416707528
0.0001408260432
0.000141246026
0.0001359680755
0.0001363693591
0.0001371696999
0.0001367705991
0.0001387810917
0.0001383760391
0.00013756931
0.0001379712194
0.0001327786449
0.0001331734966
0.0001339690061
0.0001335710695
0.0001355720888
0.0001351700048
0.0001343680633
0.0001347687648
0.0001319935836
0.0001323853794
0.0001312199456
0.0001316054986
0.0001308390201
0.0001304596663
0.0001296984119
0.0001300796575
0.000149607702
0.0001500907965
0.0001510661968
0.0001505770051
0.0001530613954
0.0001525566477
0.0001515600015
0.000152055989
0.000145996135
0.000146448976
0.0001473628945
0.0001469043491
0.0001492357987
0.0001487622649
0.0001478246559
0.0001482906082
0.0001425255905
0.0001429562253
0.0001438255276
0.0001433893049
0.0001455958991
0.0001451485587
0.0001442633948
0.0001447054674
0.0001391888363
0.0001395990694
0.0001404253417
0.0001400108595
0.0001421151101
0.0001416889572
0.0001408445678
0.0001412650017
0.0001359731687
0.0001363738702
0.0001371744729
0.0001367756777
0.0001387853845
0.0001383804047
0.0001375737047
0.0001379756868
0.0001327785285
0.000133173613
0.0001339690352
0.0001335710986
0.000135572016
0.0001351702958
0.000134368529
0.0001347691286
0.0001497138292
0.0001501966035
0.0001511701557
0.0001506815752
0.0001531625458
0.0001526584529
0.000151662447
0.0001521585655
0.0001460461935
0.0001464986854
0.0001474127203
0.0001469537237
0.0001492834126
0.000148810359
0.0001478740305
0.0001483398082
0.0001425435039
0.0001429738186
0.0001438430336
0.0001434072037
0.0001456130558
0.0001451658609
0.0001442811481
0.0001447226241
0.0001391928672
0.0001396033185
0.0001404293289
0.0001400148612
0.0001421188936
0.0001416929299
0.0001408482058
0.0001412687561
0.0001359729795
0.0001363743795
0.000137174211
0.0001367750519
0.0001387852972
0.0001383803465
0.0001375736902
0.0001379754976
0.0001497612539
0.0001502437954
0.0001512162125
0.0001507282577
0.0001532072201
0.0001527039276
0.0001517078781
0.0001522036036
0.000146063423
0.0001465160167
0.0001474299061
0.0001469706476
0.0001492997544
0.00014882705
0.0001478915074
0.0001483566593
0.0001425471855
0.0001429776603
0.0001438466861
0.0001434106962
0.0001456164464
0.0001451693533
0.0001442847133
0.0001447263057
0.000139192678
0.0001396028965
0.0001404288923
0.0001400147012
0.0001421184861
0.0001416923187
0.0001408472745
0.0001412684505
0.0001497774356
0.0001502598607
0.0001512317976
0.0001507438719
0.0001532219176
0.0001527189597
0.0001517227938
0.0001522185921
0.0001460668573
0.0001465193782
0.0001474330202
0.0001469739072
0.0001493032614
0.0001488305425
0.0001478946942
0.0001483596279
0.0001425471128
0.0001429774566
0.0001438463369
0.0001434106525
0.0001456161117
0.0001451693679
0.0001442845678
0.0001447258692
0.0001497803605
0.0001502629311
0.0001512340968
0.0001507464185
0.0001532244642
0.0001527214044
0.0001517250203
0.0001522207167
0.0001460665517
0.0001465189853
0.0001474325254
0.0001469737181
0.0001493035234
0.0001488305425
0.0001478939375
0.0001483597443
0.0001497808262
0.0001502622617
0.0001512330782
0.0001507460984
0.0001532243041
0.0001527213899
0.0001517241471
0.0001522203384
3.414648017e-05
3.505626592e-05
3.415375249e-05
3.504988854e-05
3.671761442e-05
3.41543855e-05
3.505075438e-05
3.671115337e-05
3.850616122e-05
3.415773972e-05
3.505313362e-05
3.671158629e-05
3.854680472e-05
4.074618482e-05
3.332699998e-05
3.500929233e-05
3.671349623e-05
3.847136395e-05
4.058944614e-05
4.244455704e-05
3.325350917e-05
3.493865006e-05
3.666973134e-05
3.857718548e-05
4.070698196e-05
4.249470658e-05
4.395412543e-05
3.302279219e-05
3.471918171e-05
3.660203947e-05
3.867245687e-05
4.067662667e-05
4.242005525e-05
4.401203478e-05
4.54430301e-05
3.313775233e-05
3.713263504e-05
3.482831744e-05
3.900968659e-05
4.054775491e-05
4.237607209e-05
4.393662311e-05
4.552462633e-05
4.679769336e-05
3.279364319e-05
3.877191193e-05
3.651609222e-05
3.425262912e-05
4.065812391e-05
4.215518857e-05
4.3887434e-05
4.546435957e-05
4.682912549e-05
4.765010453e-05
3.303962876e-05
4.038343832e-05
3.815954915e-05
3.620536881e-05
4.219667608e-05
4.384944623e-05
4.533194806e-05
4.682864892e-05
4.764489131e-05
4.910102871e-05
3.646967889e-05
3.236714474e-05
4.202437776e-05
3.979751637e-05
3.762370034e-05
4.374857235e-05
4.52739223e-05
4.685533713e-05
4.83244512e-05
4.976175842e-05
5.116218017e-05
3.58608886e-05
3.97972799e-05
3.178318002e-05
4.3476055e-05
4.14363858e-05
3.951831604e-05
4.527171041e-05
4.682584768e-05
4.83215299e-05
4.976137279e-05
5.116823377e-05
5.253746349e-05
3.534496864e-05
3.924942575e-05
4.301418812e-05
4.089217691e-05
3.125092917e-05
4.501783042e-05
4.295387407e-05
4.676788376e-05
4.829039972e-05
4.975765842e-05
5.116751345e-05
5.254304779e-05
5.388051068e-05
3.488822767e-05
3.879864016e-05
4.252485815e-05
4.611286204e-05
4.272405204e-05
4.404972788e-05
3.080958777e-05
4.653009091e-05
4.449691551e-05
4.823378185e-05
4.972523311e-05
5.116286047e-05
5.254191274e-05
5.388605859e-05
5.518854232e-05
3.452857709e-05
3.841409489e-05
4.213668581e-05
4.568065197e-05
4.908722622e-05
4.581402391e-05
4.708875349e-05
3.046635356e-05
4.803964111e-05
4.601381806e-05
4.966948836e-05
5.112847793e-05
5.253637573e-05
5.38844215e-05
5.519391561e-05
5.588388376e-05
3.427459524e-05
3.813210424e-05
4.182118209e-05
4.535311018e-05
4.871066631e-05
5.193123798e-05
4.878222899e-05
5.000335659e-05
4.751737652e-05
3.022054625e-05
4.948063724e-05
5.107380275e-05
5.249950118e-05
5.387792771e-05
5.51919693e-05
5.587883425e-05
5.770320058e-05
3.412631122e-05
3.796210513e-05
4.161282413e-05
4.510354847e-05
4.844176146e-05
5.160914588e-05
5.463857087e-05
5.162215894e-05
5.278678509e-05
4.898231782e-05
5.039911775e-05
3.007173655e-05
5.089234764e-05
5.244551721e-05
5.38385757e-05
5.518491525e-05
5.646603313e-05
5.770829739e-05
5.836097989e-05
3.408012708e-05
3.790466508e-05
4.152159818e-05
4.49647996e-05
4.825488577e-05
5.139652785e-05
5.436922947e-05
5.720251647e-05
5.432771286e-05
5.54332255e-05
5.179937216e-05
5.315103044e-05
3.000939978e-05
5.226947542e-05
5.378479909e-05
5.514392979e-05
5.645824422e-05
5.770627104e-05
5.835621414e-05
6.007410047e-05
3.412300066e-05
3.795264274e-05
4.154862108e-05
4.494789391e-05
4.818251909e-05
5.12691513e-05
5.421063543e-05
5.698399036e-05
5.961838906e-05
5.689203317e-05
5.793641685e-05
5.448329102e-05
5.576656258e-05
5.36156258e-05
3.00004067e-05
5.509080802e-05
5.641415555e-05
5.769731797e-05
5.89098272e-05
6.007889169e-05
6.120387116e-05
3.80910642e-05
3.422480222e-05
4.16839539e-05
4.505439938e-05
4.82364776e-05
5.126060205e-05
5.414034604e-05
5.687716475e-05
5.94485391e-05
6.187913095e-05
5.93107543e-05
6.029078941e-05
5.702765702e-05
5.824019172e-05
5.492557466e-05
5.620314914e-05
3.000235301e-05
5.636163041e-05
5.764981324e-05
5.89003248e-05
6.007630509e-05
6.120859325e-05
6.229557039e-05
3.82930848e-05
4.191086191e-05
3.43480242e-05
4.527272904e-05
4.841935879e-05
5.138345659e-05
5.419349691e-05
5.686189616e-05
5.939080074e-05
6.175589806e-05
6.397756806e-05
6.157663302e-05
6.249042781e-05
5.942755161e-05
6.056535494e-05
5.744228838e-05
5.864861305e-05
2.997152114e-05
5.759726628e-05
5.885018618e-05
6.006583862e-05
6.12060976e-05
6.229993596e-05
6.334883801e-05
4.220299525e-05
3.852165537e-05
4.558292494e-05
3.443699825e-05
4.871783312e-05
5.16402979e-05
5.438335211e-05
5.697485176e-05
5.94283083e-05
6.174550072e-05
6.389900227e-05
6.590708654e-05
6.36836412e-05
6.452723028e-05
6.167603715e-05
6.27368936e-05
5.981457798e-05
6.094575292e-05
5.879781747e-05
2.979710916e-05
6.001297152e-05
6.119480531e-05
6.229737482e-05
6.335298531e-05
6.436194235e-05
4.251983773e-05
4.595549399e-05
3.87084292e-05
4.910611096e-05
3.437067426e-05
5.201540989e-05
5.471233817e-05
5.723010327e-05
5.959926057e-05
6.183451478e-05
6.393409421e-05
6.587134703e-05
6.766065781e-05
6.562414637e-05
6.639512139e-05
6.376617966e-05
6.474721886e-05
6.203664088e-05
6.308881711e-05
5.996045729e-05
6.108577509e-05
2.933563883e-05
6.113855488e-05
6.228526763e-05
6.335027865e-05
6.436574768e-05
6.533404667e-05
4.634664947e-05
4.278352571e-05
4.955051554e-05
3.872875095e-05
5.247645458e-05
3.400776404e-05
5.516068995e-05
5.762944784e-05
5.991871876e-05
6.206193939e-05
6.4073065e-05
6.595038576e-05
6.766626029e-05
6.923371984e-05
6.739114906e-05
6.808707985e-05
6.569279503e-05
6.658885832e-05
6.409914931e-05
6.507170474e-05
6.217332702e-05
6.322126137e-05
2.837213469e-05
6.222644879e-05
6.33375239e-05
6.436266995e-05
6.533785927e-05
6.626503455e-05
5.000893725e-05
4.667463509e-05
4.287263801e-05
5.298703036e-05
3.844853563e-05
5.569049608e-05
3.312186527e-05
5.814886754e-05
6.038684296e-05
6.244408723e-05
6.435513933e-05
6.613740698e-05
6.778826355e-05
6.927724462e-05
7.061695942e-05
6.898081483e-05
6.959927123e-05
6.744677376e-05
6.825648597e-05
6.599910557e-05
6.688494614e-05
6.422941078e-05
6.519646558e-05
6.327509618e-05
2.806280099e-05
6.43494277e-05
6.533491978e-05
6.626848335e-05
6.675242912e-05
5.351092477e-05
5.040171527e-05
4.682066356e-05
4.266725227e-05
5.626492202e-05
3.772632044e-05
5.874589988e-05
3.290330642e-05
6.09751296e-05
6.297914661e-05
6.479884905e-05
6.647350529e-05
6.802233838e-05
6.943962944e-05
7.069714047e-05
7.03842743e-05
7.180295506e-05
7.092044689e-05
6.902473251e-05
6.974481948e-05
6.733990449e-05
6.815897359e-05
6.612147263e-05
6.700430822e-05
6.428419874e-05
6.525210483e-05
2.413032053e-05
2.643131484e-05
6.532077532e-05
6.626542017e-05
6.674857286e-05
6.761665281e-05
5.685484939e-05
5.397338464e-05
5.0608327e-05
4.668141992e-05
4.214794171e-05
5.938424874e-05
3.752829434e-05
6.163860962e-05
2.923290413e-05
3.143833237e-05
6.363468128e-05
6.53996467e-05
6.697826757e-05
6.841184222e-05
6.972008123e-05
7.08983207e-05
7.191704935e-05
7.041842036e-05
7.204495341e-05
7.15929491e-05
7.278351404e-05
7.10432796e-05
6.89298613e-05
6.965872308e-05
6.784372817e-05
6.825649325e-05
6.617773033e-05
6.663353997e-05
2.136071816e-05
2.403368853e-05
6.625036622e-05
6.67454151e-05
6.761280383e-05
6.843851588e-05
6.004040551e-05
5.738923937e-05
5.424844858e-05
5.053212226e-05
4.622195047e-05
4.078985876e-05
6.234175817e-05
3.413901504e-05
3.629015191e-05