/*--------------------------------*- C++ -*----------------------------------*\
  =========                 |
  \\      /  F ield         | OpenFOAM: The Open Source CFD Toolbox
   \\    /   O peration     | Website:  https://openfoam.org
    \\  /    A nd           | Version:  8
     \\/     M anipulation  |
\*---------------------------------------------------------------------------*/






FoamFile
{
    version     2.0;
    format      ascii;
    class       volSymmTensorField;
    location    "0";
    object      TauDDES;
}
// * * * * * * * * * * * * * * * * * * * * * * * * * * * * * * * * * * * * * //

dimensions      [0 2 -2 0 0 0 0];


internalField   nonuniform List<symmTensor>
18009
(
( 3.031707274e-05 -4.922182598e-06 -3.728654292e-07 1.389503359e-05 -1.066336281e-07 3.02595472e-05 )
( 3.027461571e-05 -4.866880317e-06 -3.094109502e-07 1.380059621e-05 -1.026845311e-07 3.002853737e-05 )
( 3.010772707e-05 -4.063436791e-06 -2.634775456e-07 1.172131761e-05 -8.133925178e-08 3.0765048e-05 )
( 3.089042002e-05 -6.235539786e-06 -4.273368575e-07 1.688858356e-05 -1.763382755e-07 2.94014626e-05 )
( 3.009809734e-05 -4.019313565e-06 -2.31067915e-07 1.166330367e-05 -7.630966792e-08 3.062063479e-05 )
( 3.027328603e-05 -4.86410363e-06 -3.040531453e-07 1.379021433e-05 -1.026813763e-07 3.001296864e-05 )
( 2.995803879e-05 -3.158531626e-06 -1.535460115e-07 9.013168892e-06 -5.797312852e-08 3.118673339e-05 )
( 2.995786599e-05 -3.159688504e-06 -1.542164796e-07 9.014116586e-06 -5.806472103e-08 3.11910444e-05 )
( 3.258069773e-05 -8.853062354e-06 -4.093066934e-07 2.139628123e-05 -3.58993077e-07 2.940245577e-05 )
( 3.082563489e-05 -6.194650723e-06 -3.35214736e-07 1.672178405e-05 -1.889870163e-07 2.919741746e-05 )
( 2.995568138e-05 -3.100692993e-06 -1.285059739e-07 9.008267625e-06 -5.444818285e-08 3.105257929e-05 )
( 3.010276487e-05 -3.9908291e-06 -2.07331226e-07 1.163159232e-05 -7.323828299e-08 3.053657929e-05 )
( 2.995602335e-05 -3.099442665e-06 -1.27699991e-07 9.007198969e-06 -5.42334142e-08 3.104875577e-05 )
( 3.025950718e-05 -4.815028205e-06 -2.393622367e-07 1.367384539e-05 -1.017631988e-07 2.98576615e-05 )
( 2.98318555e-05 -2.606155704e-06 -8.069133628e-08 7.199312677e-06 -3.282556094e-08 3.124021896e-05 )
( 2.980826866e-05 -2.617473911e-06 -9.363576936e-08 7.230428309e-06 -3.416414174e-08 3.130462937e-05 )
( 3.349904e-05 -1.028172574e-05 -2.241234256e-07 2.326700269e-05 -4.638682469e-07 2.953274088e-05 )
( 3.24558896e-05 -8.751118912e-06 -3.265787143e-07 2.117843178e-05 -3.834994118e-07 2.912650962e-05 )
( 3.025869046e-05 -4.811798135e-06 -2.35416735e-07 1.366175729e-05 -1.007333807e-07 2.984927414e-05 )
( 3.076124995e-05 -6.131269856e-06 -2.809802311e-07 1.652653555e-05 -1.793275715e-07 2.908099304e-05 )
( 2.982099977e-05 -2.556237632e-06 -6.484395243e-08 7.21987044e-06 -3.040248941e-08 3.115999425e-05 )
( 2.998218952e-05 -3.076394478e-06 -9.937585332e-08 8.945664376e-06 -4.512285656e-08 3.092984116e-05 )
( 3.011114131e-05 -3.949493475e-06 -1.70647894e-07 1.156294093e-05 -6.877879599e-08 3.044404548e-05 )
( 2.998157652e-05 -3.077531574e-06 -1.002347432e-07 8.946681191e-06 -4.538197729e-08 3.093322084e-05 )
( 2.984126331e-05 -2.544750259e-06 -5.092518407e-08 7.19042464e-06 -2.761268725e-08 3.109336467e-05 )
( 2.956605749e-05 -2.059197186e-06 -2.927199283e-08 5.432510079e-06 -6.326253299e-09 3.103630297e-05 )
( 2.955270975e-05 -2.07287917e-06 -4.3632852e-08 5.43726037e-06 -6.299931243e-09 3.109826503e-05 )
( 3.320088945e-05 -9.961738215e-06 -2.042894351e-07 2.270802906e-05 -4.577711366e-07 2.900369873e-05 )
( 3.232826566e-05 -8.623277608e-06 -2.752196622e-07 2.091598435e-05 -3.833467588e-07 2.889277312e-05 )
( 3.011964327e-05 -3.926505997e-06 -1.532790748e-07 1.152416189e-05 -5.62528939e-08 3.039420153e-05 )
( 3.024858961e-05 -4.763045581e-06 -2.021238288e-07 1.352757772e-05 -7.692278103e-08 2.976837641e-05 )
( 3.06988004e-05 -6.048034265e-06 -2.58234337e-07 1.630737097e-05 -1.475385574e-07 2.905491419e-05 )
( 3.02489625e-05 -4.760405773e-06 -2.007937354e-07 1.351380888e-05 -7.421217418e-08 2.976533142e-05 )
( 2.958100231e-05 -2.0269365e-06 -9.590902295e-09 5.420796697e-06 -4.533648124e-09 3.094775821e-05 )
( 2.999291246e-05 -3.025347269e-06 -7.163915683e-08 8.93546985e-06 -3.660810322e-08 3.081440809e-05 )
( 2.987418884e-05 -2.526207936e-06 -2.028814805e-08 7.146938515e-06 -1.790892057e-08 3.094811109e-05 )
( 2.999337448e-05 -3.024155831e-06 -7.096726762e-08 8.934091056e-06 -3.607830479e-08 3.081172326e-05 )
( 2.984779348e-05 -2.536992952e-06 -3.558891137e-08 7.177600764e-06 -2.264367005e-08 3.101978655e-05 )
( 2.9583176e-05 -2.015554173e-06 3.854254249e-09 5.418281035e-06 -2.226169027e-09 3.088410449e-05 )
( 2.921217856e-05 -1.707240926e-06 -1.431911745e-08 4.252150575e-06 1.383077119e-08 3.058880611e-05 )
( 2.917982602e-05 -1.718407248e-06 -3.302678664e-08 4.288091986e-06 1.383699821e-08 3.066557838e-05 )
( 3.220124927e-05 -8.486219485e-06 -2.6216685e-07 2.063918691e-05 -3.576323309e-07 2.873527228e-05 )
( 3.292269321e-05 -9.648180821e-06 -3.25185681e-07 2.219040107e-05 -3.607724182e-07 2.865145871e-05 )
( 3.001466757e-05 -3.009302418e-06 -5.713922846e-08 8.863396943e-06 -1.506040803e-08 3.072782783e-05 )
( 3.01305663e-05 -3.896326234e-06 -1.357386594e-07 1.144689304e-05 -3.508966628e-08 3.033916619e-05 )
( 3.001413279e-05 -3.010006594e-06 -5.758744592e-08 8.864674783e-06 -1.568567676e-08 3.073029438e-05 )
( 3.024556099e-05 -4.710855137e-06 -1.839868844e-07 1.333886757e-05 -4.160294154e-08 2.973441769e-05 )
( 3.024433681e-05 -4.713229828e-06 -1.857762015e-07 1.335492379e-05 -4.410932064e-08 2.973536357e-05 )
( 3.063833356e-05 -5.950603281e-06 -2.253463265e-07 1.60752752e-05 -1.154081275e-07 2.905742622e-05 )
( 3.014005961e-05 -3.88530998e-06 -1.324183359e-07 1.140089353e-05 -1.929538485e-08 3.030496009e-05 )
( 2.921132182e-05 -1.67779308e-06 4.283706279e-09 4.263871688e-06 1.544128558e-08 3.0509098e-05 )
( 2.986638719e-05 -2.479901013e-06 -4.617125349e-09 7.165288935e-06 -1.278053485e-08 3.087062578e-05 )
( 2.96093167e-05 -1.987766609e-06 3.56191876e-08 5.391286777e-06 7.230545052e-09 3.07281116e-05 )
( 2.988323467e-05 -2.472588903e-06 2.721590953e-09 7.13213467e-06 -4.399744125e-09 3.080900933e-05 )
( 2.960234451e-05 -2.002062729e-06 2.251129061e-08 5.393303127e-06 3.421178674e-09 3.079549788e-05 )
( 2.922690328e-05 -1.672935696e-06 2.162151524e-08 4.235431334e-06 1.896761681e-08 3.043562901e-05 )
( 2.886078073e-05 -1.537017283e-06 8.83435014e-09 3.688018523e-06 1.382016279e-08 3.015887887e-05 )
( 2.883873094e-05 -1.548751925e-06 -1.058247712e-08 3.703521998e-06 1.395006066e-08 3.023202225e-05 )
( 3.207417831e-05 -8.342122783e-06 -2.801645849e-07 2.037514241e-05 -3.18003373e-07 2.864043199e-05 )
( 3.262763494e-05 -9.366145605e-06 -4.223960559e-07 2.170433072e-05 -1.960374334e-07 2.833624058e-05 )
( 3.196357648e-05 -8.213751244e-06 -2.981731768e-07 2.013498488e-05 -2.657884579e-07 2.857919571e-05 )
( 3.001725418e-05 -2.973722758e-06 -4.902081585e-08 8.844013792e-06 3.574916807e-09 3.064285556e-05 )
( 2.989503264e-05 -2.463546707e-06 6.755464632e-09 7.077291684e-06 1.828011165e-08 3.069890226e-05 )
( 3.001790719e-05 -2.97329575e-06 -4.87851608e-08 8.842434909e-06 4.169731671e-09 3.064066186e-05 )
( 2.988133019e-05 -2.468604407e-06 7.132108237e-09 7.114083473e-06 8.010058394e-09 3.075188943e-05 )
( 3.016148912e-05 -3.862983249e-06 -1.218316612e-07 1.125090967e-05 9.698799097e-09 3.024273974e-05 )
( 3.023335375e-05 -4.663933396e-06 -1.495489812e-07 1.316072394e-05 -1.852540521e-08 2.971407412e-05 )
( 3.015166658e-05 -3.865055987e-06 -1.295301217e-07 1.130753026e-05 -5.160538663e-11 3.027362436e-05 )
( 3.056123387e-05 -5.857421002e-06 -1.667607705e-07 1.585921382e-05 -8.839358401e-08 2.906920781e-05 )
( 3.023154568e-05 -4.660651939e-06 -1.455382233e-07 1.314422934e-05 -1.737483935e-08 2.971347567e-05 )
( 3.00466254e-05 -2.982723345e-06 -4.523756658e-08 8.76487411e-06 2.231188923e-08 3.057428694e-05 )
( 3.004611426e-05 -2.98293503e-06 -4.523047181e-08 8.766532119e-06 2.175755398e-08 3.057604772e-05 )
( 2.886705988e-05 -1.514717269e-06 2.840842583e-08 3.68406404e-06 1.59657052e-08 3.008360363e-05 )
( 2.961814971e-05 -1.958366283e-06 5.128634228e-08 5.378668902e-06 1.455565357e-08 3.063595796e-05 )
( 2.92389177e-05 -1.645355837e-06 5.237264489e-08 4.214829005e-06 2.891668238e-08 3.028391802e-05 )
( 2.961102473e-05 -1.950446858e-06 5.717832607e-08 5.374927241e-06 2.044444614e-08 3.057469803e-05 )
( 2.921985106e-05 -1.653761842e-06 3.692413131e-08 4.241802344e-06 2.40983109e-08 3.035911686e-05 )
( 2.887279152e-05 -1.506344233e-06 4.64194585e-08 3.670133538e-06 1.968330565e-08 3.00094689e-05 )
( 2.586258233e-05 -9.464734489e-07 6.122202478e-08 1.711333539e-06 2.169625901e-08 2.673540621e-05 )
( 2.586303526e-05 -9.547187574e-07 5.063383313e-08 1.720300475e-06 2.073420191e-08 2.679347017e-05 )
( 3.242142702e-05 -9.212641089e-06 -4.162283744e-07 2.14112315e-05 -1.04115486e-07 2.818928988e-05 )
( 3.170804848e-05 -8.006387361e-06 -2.781427497e-07 1.967518801e-05 -1.360525204e-07 2.843578659e-05 )
( 3.184590605e-05 -8.106773748e-06 -2.997366835e-07 1.990403507e-05 -2.074290109e-07 2.851395948e-05 )
( 2.988099914e-05 -2.42922215e-06 9.836496062e-09 7.089816336e-06 2.660864595e-08 3.063680197e-05 )
( 2.961316022e-05 -1.937350589e-06 5.940248116e-08 5.336904906e-06 3.790513503e-08 3.043940524e-05 )
( 2.989662607e-05 -2.434481758e-06 1.073275513e-08 7.052556612e-06 3.414661975e-08 3.058684888e-05 )
( 2.961672726e-05 -1.944179076e-06 6.000503561e-08 5.344073543e-06 3.155098938e-08 3.049726729e-05 )
( 3.006902807e-05 -2.985802212e-06 -4.178041735e-08 8.646892638e-06 3.979122454e-08 3.046190795e-05 )
( 3.006878251e-05 -2.985465471e-06 -4.204214221e-08 8.648838048e-06 3.966031414e-08 3.0463445e-05 )
( 3.017090603e-05 -3.848769666e-06 -1.006897818e-07 1.114250153e-05 2.199554139e-08 3.021461816e-05 )
( 3.0045725e-05 -2.96277085e-06 -4.502723172e-08 8.73550016e-06 3.019026096e-08 3.051362728e-05 )
( 3.004627251e-05 -2.962791314e-06 -4.494308214e-08 8.733580216e-06 3.055320974e-08 3.051192834e-05 )
( 3.045703306e-05 -5.778552804e-06 -8.188148115e-08 1.565256571e-05 -7.750512054e-08 2.906877853e-05 )
( 3.016448682e-05 -4.602340596e-06 -8.146488994e-08 1.295404309e-05 -1.297530705e-08 2.970299283e-05 )
( 3.017124072e-05 -4.606371022e-06 -8.717764644e-08 1.296967093e-05 -1.282281126e-08 2.970320747e-05 )
( 3.015647417e-05 -3.843681952e-06 -8.729314516e-08 1.108137712e-05 2.474728333e-08 3.020023178e-05 )
( 2.991372821e-05 -2.45150477e-06 9.325313854e-09 6.993238003e-06 4.465024972e-08 3.050549094e-05 )
( 2.989893801e-05 -2.445102609e-06 1.086103207e-08 7.031640962e-06 4.21818882e-08 3.054314948e-05 )
( 2.585072434e-05 -9.33882518e-07 7.274568503e-08 1.705436716e-06 2.401190891e-08 2.667813169e-05 )
( 2.922274871e-05 -1.617268026e-06 6.395276841e-08 4.228862963e-06 3.38953221e-08 3.020586519e-05 )
( 2.887522533e-05 -1.479704451e-06 7.487420817e-08 3.653025942e-06 2.923913556e-08 2.986572508e-05 )
( 2.922691783e-05 -1.617037583e-06 7.144755187e-08 4.199553132e-06 4.00022202e-08 3.013597052e-05 )
( 2.887084338e-05 -1.491371222e-06 6.140412268e-08 3.664262067e-06 2.494893003e-08 2.993809903e-05 )
( 2.58363616e-05 -9.26849566e-07 8.334617974e-08 1.697721359e-06 2.665795762e-08 2.662035695e-05 )
( 2.306672104e-05 -6.92785477e-07 8.947873198e-08 9.94971856e-07 1.997056032e-08 2.383643368e-05 )
( 2.307581781e-05 -6.985613936e-07 8.383997852e-08 1.000343332e-06 1.875117128e-08 2.388570465e-05 )
( 3.203374217e-05 -8.978050573e-06 -2.981177545e-07 2.09041973e-05 -1.324529908e-08 2.81481116e-05 )
( 3.140644549e-05 -7.812510376e-06 -1.910567136e-07 1.917076406e-05 -1.712660413e-08 2.833475992e-05 )
( 3.155513332e-05 -7.90617014e-06 -2.405303121e-07 1.942536801e-05 -7.300226912e-08 2.836284693e-05 )
( 3.033722169e-05 -5.713856353e-06 3.422906758e-08 1.544493171e-05 -6.112924211e-08 2.903644963e-05 )
( 2.960653183e-05 -1.91872914e-06 5.479778764e-08 5.314963346e-06 4.780204677e-08 3.036960334e-05 )
( 2.921808664e-05 -1.605498483e-06 7.219152565e-08 4.168234682e-06 5.273918546e-08 2.99984822e-05 )
( 2.959569247e-05 -1.920330078e-06 5.198980801e-08 5.306714684e-06 5.157040306e-08 3.032189852e-05 )
( 2.92100267e-05 -1.604975409e-06 7.446161732e-08 4.20192282e-06 4.616429905e-08 3.006315092e-05 )
( 2.993256749e-05 -2.473725772e-06 5.716263018e-10 6.899207619e-06 5.302062078e-08 3.036989256e-05 )
( 3.005956387e-05 -2.978638349e-06 -3.755060263e-08 8.609303222e-06 4.157588762e-08 3.041654418e-05 )
( 2.99186504e-05 -2.459394182e-06 4.748148985e-09 6.939124887e-06 5.280790916e-08 3.039757394e-05 )
( 3.005916733e-05 -2.978793191e-06 -3.731094722e-08 8.60714772e-06 4.158872002e-08 3.041557466e-05 )
( 2.989761015e-05 -2.426545507e-06 8.680281383e-09 7.001186987e-06 4.570138046e-08 3.046418351e-05 )
( 2.991605652e-05 -2.438844149e-06 6.074627468e-09 6.962509815e-06 4.936797282e-08 3.043059951e-05 )
( 3.005808139e-05 -4.546369837e-06 4.924287644e-09 1.278666878e-05 -1.915411474e-08 2.967783257e-05 )
( 3.004864448e-05 -4.542750503e-06 1.445338338e-08 1.277105184e-05 -1.971379504e-08 2.967412001e-05 )
( 3.007764644e-05 -3.808670954e-06 -3.153234118e-08 1.091595004e-05 1.394476712e-08 3.017079143e-05 )
( 3.011494118e-05 -3.817795914e-06 -5.719152796e-08 1.097667882e-05 2.177253755e-08 3.018952884e-05 )
( 3.00429092e-05 -2.996479679e-06 -3.707114971e-08 8.518890354e-06 4.095107187e-08 3.039353032e-05 )
( 3.004398604e-05 -2.996511284e-06 -3.729835285e-08 8.520820302e-06 4.107664964e-08 3.039402691e-05 )
( 2.959406993e-05 -1.928994152e-06 4.304793322e-08 5.264700121e-06 5.627592259e-08 3.023085264e-05 )
( 2.959962876e-05 -1.927580115e-06 4.754059191e-08 5.272265753e-06 5.666031555e-08 3.026748709e-05 )
( 2.304866575e-05 -6.83879307e-07 9.566080195e-08 9.905556908e-07 2.161701929e-08 2.378845966e-05 )
( 2.886691072e-05 -1.459366331e-06 8.68980834e-08 3.652394753e-06 3.357696698e-08 2.979073543e-05 )
( 2.579508873e-05 -9.094505913e-07 9.690549518e-08 1.690698468e-06 3.20667688e-08 2.650663191e-05 )
( 2.886117181e-05 -1.45507056e-06 9.379374433e-08 3.63940535e-06 3.829165962e-08 2.97200495e-05 )
( 2.581594163e-05 -9.168110751e-07 9.15212226e-08 1.694347816e-06 2.956925371e-08 2.65630697e-05 )
( 2.302615212e-05 -6.773393579e-07 1.013624455e-07 9.859901411e-07 2.311912084e-08 2.374063843e-05 )
( 1.938062633e-05 -4.777694471e-07 1.109838053e-07 5.284030635e-07 1.650897374e-08 2.019472959e-05 )
( 1.939370486e-05 -4.816825481e-07 1.093080897e-07 5.31095111e-07 1.507044622e-08 2.023538036e-05 )
( 3.149704571e-05 -8.748906112e-06 -6.862067892e-08 2.039779793e-05 3.103711066e-08 2.82890669e-05 )
( 3.123893475e-05 -7.738020031e-06 -1.16889936e-07 1.892569162e-05 2.836921453e-08 2.836107706e-05 )
( 3.103305789e-05 -7.672779248e-06 -2.16987921e-08 1.868827894e-05 6.395180208e-08 2.841003334e-05 )
( 3.008137537e-05 -5.597242307e-06 2.082255435e-07 1.500701092e-05 1.423071438e-08 2.89940217e-05 )
( 3.020653457e-05 -5.651922947e-06 1.401210739e-07 1.52265784e-05 -3.292257489e-08 2.900562686e-05 )
( 2.99107287e-05 -4.483624707e-06 1.517227872e-07 1.258705561e-05 -2.953276379e-08 2.961153768e-05 )
( 2.992103691e-05 -4.487382739e-06 1.406433796e-07 1.260252156e-05 -2.92150073e-08 2.961612154e-05 )
( 2.919207145e-05 -1.587311658e-06 6.652055617e-08 4.174141395e-06 5.789355129e-08 2.993501948e-05 )
( 2.884605055e-05 -1.443215751e-06 9.031813164e-08 3.612433602e-06 4.935680664e-08 2.958922596e-05 )
( 2.918777318e-05 -1.596444463e-06 5.958094107e-08 4.13851194e-06 6.17999234e-08 2.988189772e-05 )
( 2.885046524e-05 -1.446200258e-06 9.475188989e-08 3.629985713e-06 4.367589668e-08 2.965282329e-05 )
( 2.991201472e-05 -2.458149538e-06 -1.235451519e-09 6.902155292e-06 5.041131601e-08 3.033821122e-05 )
( 2.960113125e-05 -1.962470833e-06 1.817921991e-08 5.197445716e-06 5.404217518e-08 3.007438136e-05 )
( 2.960123129e-05 -1.951609875e-06 2.521270126e-08 5.204577064e-06 5.638272427e-08 3.010604087e-05 )
( 2.99151925e-05 -2.473135282e-06 -8.694873266e-09 6.862351256e-06 4.913445295e-08 3.031689084e-05 )
( 2.959202357e-05 -1.92323364e-06 3.831116047e-08 5.244034128e-06 5.476322684e-08 3.018297684e-05 )
( 2.959033372e-05 -1.932601208e-06 3.268745985e-08 5.237302503e-06 5.609375009e-08 3.014858521e-05 )
( 3.001257573e-05 -3.780422958e-06 1.291328378e-08 1.081098708e-05 6.753875681e-09 3.014942922e-05 )
( 2.995619434e-05 -3.765229394e-06 5.41703038e-08 1.075083492e-05 7.96420041e-10 3.012208799e-05 )
( 2.996419789e-05 -2.982788601e-06 -1.830825624e-08 8.388880815e-06 2.644334174e-08 3.034241854e-05 )
( 2.996559851e-05 -2.983108061e-06 -1.882831135e-08 8.390898984e-06 2.665854737e-08 3.034320252e-05 )
( 3.00009051e-05 -2.976817086e-06 -2.956019252e-08 8.478568816e-06 3.262529802e-08 3.036178168e-05 )
( 2.999972821e-05 -2.976574706e-06 -2.900371321e-08 8.476412404e-06 3.234880097e-08 3.036090675e-05 )
( 2.98930554e-05 -2.499755055e-06 -2.542319244e-08 6.798978575e-06 4.416182264e-08 3.028145875e-05 )
( 2.989454151e-05 -2.491427495e-06 -1.568198549e-08 6.838765785e-06 4.699151646e-08 3.029999425e-05 )
( 2.917343954e-05 -1.602375733e-06 4.479937843e-08 4.105927474e-06 6.166183653e-08 2.97862789e-05 )
( 2.916533958e-05 -1.593117759e-06 5.237236422e-08 4.138416898e-06 6.233714345e-08 2.983077684e-05 )
( 1.935971886e-05 -4.717451816e-07 1.137364336e-07 5.2603923e-07 1.755857326e-08 2.015659993e-05 )
( 2.576706538e-05 -8.988836839e-07 9.845160776e-08 1.690489285e-06 3.499880918e-08 2.645206951e-05 )
( 2.296561797e-05 -6.633568432e-07 1.065349693e-07 9.826935639e-07 2.556378931e-08 2.364702777e-05 )
( 2.573907841e-05 -8.945286822e-07 9.572087833e-08 1.68622114e-06 3.799343773e-08 2.640056118e-05 )
( 2.299725929e-05 -6.692682746e-07 1.053891694e-07 9.839178574e-07 2.452113357e-08 2.369363392e-05 )
( 1.933368549e-05 -4.663538391e-07 1.157001321e-07 5.236191214e-07 1.808820471e-08 2.011861579e-05 )
( 1.498349866e-05 -2.960158838e-07 1.197905135e-07 2.500601397e-07 1.16058354e-08 1.593532397e-05 )
( 1.49991929e-05 -2.984999696e-07 1.195793828e-07 2.511457637e-07 1.025421703e-08 1.596582297e-05 )
( 3.097474473e-05 -8.477747542e-06 1.425421061e-07 1.991112913e-05 6.220417959e-08 2.839120134e-05 )
( 3.079532326e-05 -7.591295343e-06 7.753902764e-08 1.845859151e-05 8.441118382e-08 2.846201642e-05 )
( 3.056213245e-05 -7.487384664e-06 1.602651878e-07 1.822949707e-05 9.547522239e-08 2.850928831e-05 )
( 2.993680937e-05 -5.559820238e-06 2.478158763e-07 1.47922683e-05 5.678387538e-08 2.900610161e-05 )
( 2.978266821e-05 -5.533571311e-06 2.773488461e-07 1.458892075e-05 8.094465187e-08 2.900732215e-05 )
( 2.961665814e-05 -4.370589977e-06 3.425946602e-07 1.222618084e-05 -3.528905612e-09 2.956012395e-05 )
( 2.962712279e-05 -4.372583135e-06 3.392299277e-07 1.224140306e-05 -5.649370305e-09 2.955912169e-05 )
( 2.976030009e-05 -4.419950983e-06 2.767342835e-07 1.240767233e-05 -2.7813023e-08 2.957278775e-05 )
( 2.97711631e-05 -4.423593964e-06 2.689480709e-07 1.242286635e-05 -2.868844007e-08 2.957429751e-05 )
( 2.981001671e-05 -3.706962843e-06 1.924475868e-07 1.059374881e-05 -2.064490801e-08 3.004450446e-05 )
( 2.987404332e-05 -3.731448487e-06 1.36375121e-07 1.064887874e-05 -8.824826203e-09 3.007203486e-05 )
( 2.88263127e-05 -1.432286126e-06 8.188666811e-08 3.603518053e-06 5.410414872e-08 2.952992145e-05 )
( 2.568238415e-05 -8.844525041e-07 8.046583133e-08 1.674907821e-06 4.409384502e-08 2.629888877e-05 )
( 2.881187174e-05 -1.436873049e-06 7.199592744e-08 3.58396619e-06 5.692000116e-08 2.947554276e-05 )
( 2.570945981e-05 -8.87628687e-07 8.928657991e-08 1.68230406e-06 4.130274078e-08 2.635090459e-05 )
( 2.959880294e-05 -1.966694754e-06 7.083045261e-09 5.17546323e-06 5.097382783e-08 3.003625534e-05 )
( 2.916310768e-05 -1.63820755e-06 6.433276134e-09 4.054997589e-06 5.190963037e-08 2.962073449e-05 )
( 2.914695688e-05 -1.619509135e-06 1.749601353e-08 4.086267836e-06 5.439272144e-08 2.965929889e-05 )
( 2.958701953e-05 -1.981093874e-06 -3.520627789e-09 5.16820046e-06 4.727726832e-08 3.000852485e-05 )
( 2.915154437e-05 -1.594363425e-06 3.672937865e-08 4.115029242e-06 5.8233109e-08 2.974161362e-05 )
( 2.915970254e-05 -1.612330607e-06 2.769596108e-08 4.083769454e-06 5.755563492e-08 2.970075366e-05 )
( 2.989976565e-05 -2.955161108e-06 -5.140963655e-09 8.347354196e-06 1.70738943e-08 3.032206223e-05 )
( 2.989774475e-05 -2.954604952e-06 -4.468555304e-09 8.345199603e-06 1.69541714e-08 3.032159293e-05 )
( 2.983602644e-05 -2.953436251e-06 2.408148347e-08 8.255754437e-06 1.358668467e-08 3.029435538e-05 )
( 2.983816921e-05 -2.954033107e-06 2.286748924e-08 8.257762602e-06 1.378179704e-08 3.029538129e-05 )
( 2.980949466e-05 -2.493778766e-06 -4.676905263e-08 6.69518522e-06 2.878104688e-08 3.02202443e-05 )
( 2.982014121e-05 -2.491452506e-06 -3.96636004e-08 6.735138868e-06 3.183009056e-08 3.022657256e-05 )
( 2.985598258e-05 -2.475665269e-06 -2.968046964e-08 6.800347819e-06 3.814652771e-08 3.02580429e-05 )
( 2.984958155e-05 -2.48256265e-06 -3.609230248e-08 6.759502867e-06 3.511757996e-08 3.024095167e-05 )
( 2.956435856e-05 -2.006042223e-06 -3.573212126e-08 5.128736575e-06 3.879889121e-08 2.995332943e-05 )
( 2.957853394e-05 -1.999624601e-06 -2.002140853e-08 5.135560514e-06 4.293896794e-08 2.997772026e-05 )
( 2.878936539e-05 -1.442230541e-06 5.051609975e-08 3.556412139e-06 5.534423764e-08 2.937873069e-05 )
( 2.879537351e-05 -1.436692514e-06 6.168610867e-08 3.572387868e-06 5.701120642e-08 2.942519859e-05 )
( 1.496269761e-05 -2.923084992e-07 1.195900836e-07 2.49083854e-07 1.247840942e-08 1.590648208e-05 )
( 2.292796489e-05 -6.565146577e-07 1.038937469e-07 9.832658634e-07 2.71095324e-08 2.360139479e-05 )
( 1.926269033e-05 -4.553974975e-07 1.15534931e-07 5.220247203e-07 1.807079109e-08 2.004338785e-05 )
( 2.288882933e-05 -6.531758459e-07 9.724557515e-08 9.821404774e-07 2.950301692e-08 2.355985634e-05 )
( 1.930059079e-05 -4.599780254e-07 1.165846157e-07 5.224970892e-07 1.816109041e-08 2.008091542e-05 )
( 1.49368143e-05 -2.887605319e-07 1.186883551e-07 2.480319097e-07 1.258550775e-08 1.587769111e-05 )
( 1.037982474e-05 -1.563132059e-07 1.090555486e-07 1.015898192e-07 6.635534788e-09 1.140623317e-05 )
( 1.039402105e-05 -1.578994784e-07 1.100002223e-07 1.019305529e-07 5.640223399e-09 1.142841938e-05 )
( 3.053587716e-05 -8.20816058e-06 2.093508584e-07 1.938481728e-05 8.791489137e-08 2.846659845e-05 )
( 3.033985195e-05 -7.375223049e-06 2.135950155e-07 1.799695019e-05 1.046421616e-07 2.85509177e-05 )
( 3.013052628e-05 -7.262940926e-06 2.327209359e-07 1.775560304e-05 1.14073849e-07 2.859050073e-05 )
( 2.963142106e-05 -5.495538517e-06 3.049984798e-07 1.439125117e-05 8.103839377e-08 2.901382504e-05 )
( 2.948365727e-05 -5.443096143e-06 3.211962394e-07 1.419123691e-05 6.676600606e-08 2.903335917e-05 )
( 2.9483248e-05 -4.341291969e-06 3.722352346e-07 1.205953686e-05 1.675070571e-08 2.956098615e-05 )
( 2.947414578e-05 -4.340816304e-06 3.731233278e-07 1.2044512e-05 1.830771268e-08 2.956149183e-05 )
( 2.934131771e-05 -4.323820121e-06 3.957210879e-07 1.186903955e-05 2.925431808e-08 2.954460069e-05 )
( 2.934941404e-05 -4.323843768e-06 3.951285521e-07 1.188382976e-05 2.883367145e-08 2.954592492e-05 )
( 2.949108602e-05 -3.595410135e-06 3.57172155e-07 1.029073519e-05 -2.045189795e-08 2.99693711e-05 )
( 2.95537593e-05 -3.607843155e-06 3.4436232e-07 1.03491675e-05 -2.809041e-08 2.998372838e-05 )
( 2.964607847e-05 -3.639003125e-06 3.076285111e-07 1.044503188e-05 -3.714622565e-08 3.000025208e-05 )
( 2.97154038e-05 -3.662261406e-06 2.677734301e-07 1.049911134e-05 -3.13451487e-08 3.001955884e-05 )
( 2.967292676e-05 -2.894565114e-06 1.16343287e-07 8.137643817e-06 -8.869369239e-09 3.023271347e-05 )
( 2.967574619e-05 -2.895654461e-06 1.145253066e-07 8.139203601e-06 -8.280110819e-09 3.023346653e-05 )
( 2.974543713e-05 -2.911087222e-06 6.42556941e-08 8.216733477e-06 4.830299716e-09 3.026358172e-05 )
( 2.974767085e-05 -2.911956244e-06 6.266032671e-08 8.218794392e-06 5.247984269e-09 3.026479681e-05 )
( 2.564864553e-05 -8.790544825e-07 6.725175439e-08 1.6686663e-06 4.578618729e-08 2.624712943e-05 )
( 2.280617628e-05 -6.447661463e-07 7.939892299e-08 9.770358247e-07 3.372155888e-08 2.347338705e-05 )
( 2.561628207e-05 -8.80892344e-07 5.06515363e-08 1.659004852e-06 4.525315234e-08 2.619588122e-05 )
( 2.284769107e-05 -6.478568366e-07 8.927536044e-08 9.804715546e-07 3.16805675e-08 2.35165262e-05 )
( 2.914591096e-05 -1.640057462e-06 -6.271164921e-09 4.063936558e-06 4.704526546e-08 2.958102596e-05 )
( 2.876406506e-05 -1.476368197e-06 5.492597488e-10 3.513258434e-06 4.327797143e-08 2.920912812e-05 )
( 2.876168219e-05 -1.462018531e-06 1.446098352e-08 3.528108437e-06 4.677057319e-08 2.925040826e-05 )
( 2.914836841e-05 -1.663937383e-06 -2.044441061e-08 4.03347758e-06 4.346160054e-08 2.954554293e-05 )
( 2.877379484e-05 -1.440250799e-06 3.911926783e-08 3.552309863e-06 5.225951583e-08 2.93342564e-05 )
( 2.876898543e-05 -1.453332288e-06 2.705841773e-08 3.537102884e-06 4.991674274e-08 2.929208858e-05 )
( 2.975897769e-05 -2.46442346e-06 -4.955121113e-08 6.69541987e-06 2.387981723e-08 3.020995609e-05 )
( 2.973769369e-05 -2.467049853e-06 -5.024244487e-08 6.653556284e-06 2.09531148e-08 3.020216718e-05 )
( 2.966247121e-05 -2.467374088e-06 -3.700838036e-08 6.586782092e-06 1.898539814e-08 3.018105053e-05 )
( 2.968869194e-05 -2.471027983e-06 -4.237135798e-08 6.627504717e-06 1.973204711e-08 3.019042379e-05 )
( 2.947999383e-05 -2.013065114e-06 -1.074958007e-07 5.058923307e-06 2.523357168e-08 2.986997424e-05 )
( 2.950330236e-05 -2.014996426e-06 -9.0527287e-08 5.067671736e-06 2.666684473e-08 2.988343294e-05 )
( 2.954494994e-05 -2.000411769e-06 -5.455071062e-08 5.105274795e-06 3.369025947e-08 2.992286682e-05 )
( 2.952048999e-05 -2.005451506e-06 -7.198821805e-08 5.096763743e-06 3.069314047e-08 2.990064786e-05 )
( 2.912888885e-05 -1.688800353e-06 -5.854271734e-08 4.006724794e-06 3.409423499e-08 2.947541907e-05 )
( 2.912676791e-05 -1.673493898e-06 -3.792775161e-08 4.036623523e-06 3.790277248e-08 2.95089485e-05 )
( 2.555085848e-05 -8.850804534e-07 1.296414265e-08 1.646232249e-06 3.881381971e-08 2.609534386e-05 )
( 2.558177403e-05 -8.807611493e-07 3.213769872e-08 1.652689889e-06 4.254973973e-08 2.614380901e-05 )
( 1.036191406e-05 -1.542794053e-07 1.075342198e-07 1.013039679e-07 7.279159941e-09 1.138576226e-05 )
( 1.921928197e-05 -4.512778844e-07 1.108437289e-07 5.227536235e-07 1.883078049e-08 2.000725544e-05 )
( 1.486601559e-05 -2.812890898e-07 1.151819973e-07 2.472087033e-07 1.152997076e-08 1.581933611e-05 )
( 1.917399641e-05 -4.492032986e-07 1.037786888e-07 5.228704936e-07 2.001345223e-08 1.996965693e-05 )
( 1.490401519e-05 -2.844570304e-07 1.176583098e-07 2.474398002e-07 1.219018664e-08 1.584903657e-05 )
( 1.034004345e-05 -1.523923459e-07 1.052975094e-07 1.009073785e-07 7.512391598e-09 1.13653241e-05 )
( 6.254016625e-06 -6.681872833e-08 8.02877409e-08 3.360012357e-08 3.041674246e-09 7.152636954e-06 )
( 6.263770956e-06 -6.767045591e-08 8.099140558e-08 3.369069645e-08 2.532961396e-09 7.167045624e-06 )
( 3.013046626e-05 -7.927825209e-06 1.266533047e-07 1.883009463e-05 7.211305331e-08 2.862670226e-05 )
( 2.992719965e-05 -7.148237273e-06 2.193382329e-07 1.749998955e-05 1.207216229e-07 2.863448208e-05 )
( 2.97297629e-05 -7.025559626e-06 1.823485718e-07 1.723468267e-05 1.187249197e-07 2.869852324e-05 )
( 2.933062206e-05 -5.38391032e-06 3.235107044e-07 1.399100256e-05 5.682522186e-08 2.904549365e-05 )
( 2.918051177e-05 -5.321117897e-06 3.106380007e-07 1.378196248e-05 6.390759921e-08 2.902370943e-05 )
( 2.922895328e-05 -4.308529697e-06 4.110946747e-07 1.170780524e-05 2.730889292e-08 2.95236423e-05 )
( 2.922067506e-05 -4.307672043e-06 4.112868908e-07 1.169290954e-05 2.680650013e-08 2.952328759e-05 )
( 2.90981443e-05 -4.282363989e-06 4.166415692e-07 1.151699144e-05 1.952492568e-08 2.950352791e-05 )
( 2.910676267e-05 -4.283785984e-06 4.166891756e-07 1.15314715e-05 2.041286251e-08 2.950498674e-05 )
( 2.940371269e-05 -3.576279596e-06 3.766700161e-07 1.018927469e-05 -1.249892811e-08 2.996124203e-05 )
( 2.93410194e-05 -3.567496378e-06 3.991281403e-07 1.013066685e-05 -1.24988091e-08 2.993954331e-05 )
( 2.920705811e-05 -3.556736146e-06 4.489882031e-07 9.978019989e-06 -1.388868842e-08 2.988663073e-05 )
( 2.926185152e-05 -3.556426691e-06 4.253761006e-07 1.00347097e-05 -1.031831509e-08 2.991484871e-05 )
( 2.932450661e-05 -2.791099632e-06 2.566814885e-07 7.913684385e-06 -2.595098181e-08 3.007653686e-05 )
( 2.932186362e-05 -2.790620101e-06 2.574523137e-07 7.911700777e-06 -2.578725855e-08 3.007513078e-05 )
( 2.939317164e-05 -2.795536375e-06 2.403809845e-07 7.993889085e-06 -3.404423765e-08 3.011988156e-05 )
( 2.939030128e-05 -2.794759212e-06 2.410982347e-07 7.991850907e-06 -3.384845826e-08 3.011870285e-05 )
( 2.948831388e-05 -2.830356152e-06 2.159784174e-07 8.028570846e-06 -3.478632493e-08 3.016373375e-05 )
( 2.949108239e-05 -2.831164238e-06 2.148111946e-07 8.030277058e-06 -3.470385224e-08 3.016474875e-05 )
( 2.958034202e-05 -2.84607313e-06 1.676493895e-07 8.107975191e-06 -2.490581075e-08 3.020050281e-05 )
( 2.95774953e-05 -2.845032213e-06 1.692282012e-07 8.106207133e-06 -2.538929955e-08 3.019969517e-05 )
( 2.949174814e-05 -2.407084366e-06 2.845820291e-08 6.493926321e-06 1.932832783e-10 3.011362787e-05 )
( 2.951610259e-05 -2.415607469e-06 9.437668425e-09 6.529981874e-06 6.536528652e-09 3.01322525e-05 )
( 2.956723802e-05 -2.420984401e-06 -1.108528025e-08 6.550945727e-06 1.376137426e-08 3.015015864e-05 )
( 2.959802805e-05 -2.428919743e-06 -2.352084039e-08 6.588232736e-06 1.615926593e-08 3.016251685e-05 )
( 2.276076702e-05 -6.409899811e-07 6.608373582e-08 9.729900512e-07 3.466572807e-08 2.343006054e-05 )
( 1.907479782e-05 -4.441009764e-07 8.48362518e-08 5.212964425e-07 2.356747153e-08 1.98998805e-05 )
( 2.271585618e-05 -6.413109759e-07 4.961188793e-08 9.672871784e-07 3.348235822e-08 2.338438571e-05 )
( 1.912524021e-05 -4.463323364e-07 9.452892158e-08 5.22657956e-07 2.205300476e-08 1.993535079e-05 )
( 2.875531027e-05 -1.483357323e-06 -1.266449878e-08 3.508385817e-06 3.851486952e-08 2.91683009e-05 )