/*--------------------------------*- C++ -*----------------------------------*\
  =========                 |
  \\      /  F ield         | OpenFOAM: The Open Source CFD Toolbox
   \\    /   O peration     | Website:  https://openfoam.org
    \\  /    A nd           | Version:  8
     \\/     M anipulation  |
\*---------------------------------------------------------------------------*/






FoamFile
{
    version     2.0;
    format      ascii;
    class       volScalarField;
    location    "0";
    object      V;
}
// * * * * * * * * * * * * * * * * * * * * * * * * * * * * * * * * * * * * * //

dimensions      [0 3 0 0 0 0 0];


internalField   nonuniform List<scalar> 
18009
(
0.000112678633
0.0001126614697
0.0001017674067
0.0003219908297
0.0001017948459
0.0001127336164
3.355673749e-05
3.354200092e-05
0.0003444607587
0.0003221703888
3.354822161e-05
0.0001018113928
3.356133148e-05
0.0001127197445
2.887086825e-05
2.88699776e-05
0.000943165241
0.000344784749
0.0001127777212
0.0003223268013
2.887361451e-05
3.356565199e-05
0.0001018332997
3.35540392e-05
2.887435798e-05
2.474902818e-05
2.474775084e-05
0.00094443851
0.0003449110691
0.0001018461923
0.0001127655798
0.0003224385669
0.0001128114614
2.475002222e-05
3.355889595e-05
2.887744692e-05
3.356916188e-05
2.88768093e-05
2.475109178e-05
2.191497527e-05
2.191429317e-05
0.0003451215288
0.0009452341931
3.357240056e-05
0.0001018632253
3.356339454e-05
0.0001128373826
0.0001128020774
0.0003225330113
0.0001018730971
2.191559551e-05
2.887954798e-05
2.475285834e-05
2.888006621e-05
2.475193457e-05
2.191610847e-05
2.127847625e-05
2.127805457e-05
0.0003451960962
0.0009456608956
0.0003453203392
3.356706127e-05
2.888227179e-05
3.357496111e-05
2.888189164e-05
0.0001018937577
0.0001128297224
0.0001018862992
0.0003225963634
0.0001128558393
3.357738076e-05
3.357047009e-05
2.127890978e-05
2.475357648e-05
2.191703024e-05
2.475434156e-05
2.191658334e-05
2.127918198e-05
1.719401636e-05
1.719378309e-05
0.0009457807326
0.0003454156955
0.0003453583103
2.888377267e-05
2.475542596e-05
2.888405696e-05
2.475488358e-05
3.358121423e-05
3.357598524e-05
0.0001019035018
3.357330906e-05
3.357935198e-05
0.0003226459472
0.0001128687718
0.0001128505857
0.0001019087718
2.888566701e-05
2.88853945e-05
1.719440691e-05
2.191747018e-05
2.127952429e-05
2.191783743e-05
2.127921287e-05
1.719457022e-05
1.389354876e-05
1.389343546e-05
0.0009456118062
0.0003454259062
0.0003454242467
0.0003226738668
2.475577132e-05
2.191817463e-05
2.475617401e-05
2.191807168e-05
2.888850441e-05
3.357815971e-05
2.888821691e-05
3.358263862e-05
2.888684405e-05
2.888712369e-05
0.0001128653413
0.0001128767763
0.0001019193178
0.0001019156713
3.35838882e-05
3.358010125e-05
2.475689438e-05
2.475648683e-05
1.389388464e-05
2.127991741e-05
1.719459943e-05
2.128004336e-05
1.719424598e-05
1.389397698e-05
1.122659988e-05
1.122656234e-05
0.0009451223969
0.0003454053565
0.0003453544248
0.0003226869699
0.0003226887111
0.0001128808045
0.0001128755322
2.191812473e-05
2.127990402e-05
2.19180652e-05
2.12802581e-05
2.888944208e-05
2.475848488e-05
2.475801402e-05
2.888966833e-05
2.475722208e-05
2.475763369e-05
0.0001019239529
0.0001019263775
3.358565408e-05
3.358307494e-05
3.358164962e-05
3.358482722e-05
2.889065468e-05
2.889046055e-05
2.191824014e-05
2.191809854e-05
1.122688139e-05
1.719516677e-05
1.389383345e-05
1.719519524e-05
1.389348338e-05
1.122692622e-05
9.071574175e-06
9.071582767e-06
0.0009442189019
0.0003452966755
0.0003451877237
0.0003226703191
0.0003226389653
0.0001128765445
0.0001128832282
0.0001128807358
0.0001128813704
0.0001019304567
0.0001019291354
2.127959246e-05
1.719511152e-05
2.127886473e-05
1.719571516e-05
2.475887084e-05
2.191911456e-05
2.191865786e-05
2.475924332e-05
2.191837246e-05
2.191845684e-05
3.358421078e-05
3.358623233e-05
3.35866748e-05
3.358521872e-05
2.889233691e-05
2.889215655e-05
2.889134091e-05
2.889154734e-05
2.475985502e-05
2.475951771e-05
2.127899194e-05
2.127868101e-05
9.071805467e-06
1.389445362e-05
1.122669722e-05
1.389442742e-05
1.122637438e-05
9.071819454e-06
7.330212486e-06
7.330247067e-06
0.0009427215939
0.0003450712384
0.000344888571
0.0003225886658
0.0003225201317
0.0001128809664
0.0001128681686
0.0001128556462
0.0001128748439
0.0001019297285
0.0001019307287
0.0001019316416
0.0001019313997
3.358686242e-05
3.358652927e-05
3.358686606e-05
3.358597077e-05
1.719491204e-05
1.389437975e-05
1.71937006e-05
1.389507464e-05
2.191953874e-05
2.127926814e-05
2.127853104e-05
2.191970887e-05
2.127915529e-05
2.127872324e-05
2.889281793e-05
2.889297038e-05
2.889347434e-05
2.889335554e-05
2.476123394e-05
2.476091153e-05
2.476018742e-05
2.476058005e-05
2.191993383e-05
2.191974775e-05
1.719436446e-05
1.719358034e-05
7.330399238e-06
1.122730299e-05
9.071557593e-06
1.122724923e-05
9.071271681e-06
7.330394023e-06
5.923113498e-06
5.923162112e-06
0.0009403231722
0.000344669706
0.000344384454
0.0003224233119
0.000322296672
0.0001128648911
0.0001128385083
0.0001128151164
0.0001128500496
0.0001019268412
0.0001019247382
0.0001019172216
0.0001019201583
3.358683946e-05
3.358485442e-05
3.358708841e-05
3.35857292e-05
3.358631108e-05
3.358707853e-05
3.358688261e-05
3.358668076e-05
2.889381071e-05
2.889382703e-05
2.88937429e-05
2.889371244e-05
1.389425302e-05
1.122722327e-05
1.389286823e-05
1.12279207e-05
2.128091467e-05
1.719437676e-05
1.719336976e-05
2.128053984e-05
1.719481836e-05
1.719393515e-05
2.476148298e-05
2.476174526e-05
2.476220211e-05
2.476197929e-05
2.19214244e-05
2.192112507e-05
2.192033948e-05
2.192073967e-05
2.127976973e-05
2.12792678e-05
1.389377408e-05
1.389279104e-05
5.92326239e-06
9.072114206e-06
7.330129451e-06
9.072049518e-06
7.329883175e-06
5.923245547e-06
4.786115751e-06
4.786170595e-06
0.0009365335354
0.0003439789847
0.0003435377026
0.0003221269094
0.0003219026192
0.0001128288499
0.000112783801
0.0001127423288
0.0001127992764
0.0001019109083
0.0001019068815
0.0001018923907
0.0001018982103
3.358640153e-05
3.358380245e-05
3.358251653e-05
3.358575524e-05
3.357951867e-05
3.358414719e-05
3.358505286e-05
3.358115026e-05
2.889293201e-05
2.88927751e-05
2.889340062e-05
2.889330703e-05
2.889362167e-05
2.889366298e-05
2.889379297e-05
2.889377073e-05
2.476227833e-05
2.476232449e-05
2.476236159e-05
2.476232604e-05
1.122714513e-05
9.072036879e-06
1.122576104e-05
9.072688845e-06
1.719754946e-05
1.389364753e-05
1.389256589e-05
1.719649828e-05
1.38943515e-05
1.389328967e-05
2.19216606e-05
2.192185719e-05
2.192257507e-05
2.192219751e-05
2.128211937e-05
2.128123749e-05
2.128066249e-05
2.128099126e-05
1.71945974e-05
1.719363939e-05
1.122673629e-05
1.122571348e-05
4.786233099e-06
7.330622619e-06
5.922995118e-06
7.33055583e-06
5.922787106e-06
4.786210241e-06
3.867373171e-06
3.867428975e-06
0.0003427801485
0.000342079109
0.000321607898
0.0003212030849
0.000112759133
0.0001126878619
0.0001126160873
0.0001127048151
0.0001018805394
0.0001018722633
0.0001018450773
0.0001018564721
3.358320918e-05
3.357780462e-05
3.357572796e-05
3.358200199e-05
3.357072848e-05
3.357903591e-05
3.358072309e-05
3.357349401e-05
2.889226982e-05
2.889209533e-05
2.889132354e-05
2.889149001e-05
2.888945126e-05
2.888962795e-05
2.889062852e-05
2.889045299e-05
2.476148677e-05
2.476118589e-05
2.47618773e-05
2.476170445e-05
2.476199027e-05
2.476209471e-05
2.47622289e-05
2.476217151e-05
2.192255212e-05
2.192260883e-05
2.192272635e-05
2.19227697e-05
9.071989701e-06
7.330551459e-06
9.070698832e-06
7.331135647e-06
1.389741245e-05
1.122654664e-05
1.122549789e-05
1.389607177e-05
1.122734208e-05
1.122625707e-05
2.128197931e-05
2.128191747e-05
2.128366674e-05
2.128252655e-05
1.719724375e-05
1.719576931e-05
1.719595558e-05
1.719595342e-05
1.389369327e-05
1.389256339e-05
9.071647526e-06
9.070670925e-06
3.86746467e-06
5.923421343e-06
4.785982103e-06
5.923357757e-06
4.78580885e-06
3.867439038e-06
3.124990879e-06
3.125044629e-06
0.0003206706814
0.0003199035552
0.000112630515
0.0001125198563
0.0001123897923
0.0001125279647
0.0001018243722
0.0001018087775
0.0001017599347
0.0001017815984
3.357720941e-05
3.356772791e-05
3.356406586e-05
3.357485312e-05
3.355534031e-05
3.35691746e-05
3.357234324e-05
3.356012789e-05
2.888852444e-05
2.888834826e-05
2.88871026e-05
2.888727569e-05
2.888410811e-05
2.888432187e-05
2.888590365e-05
2.888571585e-05
2.476088763e-05
2.47605584e-05
2.475991728e-05
2.476026753e-05
2.475826984e-05
2.475875937e-05
2.475958485e-05
2.475916149e-05
2.192209433e-05
2.192177364e-05
2.192236628e-05
2.192231451e-05
2.192240819e-05
2.192250347e-05
2.192257676e-05
2.19225558e-05
2.128355759e-05
2.128334801e-05
2.128366796e-05
2.128410596e-05
7.330523903e-06
5.923358257e-06
7.32936902e-06
5.923867183e-06
1.123037266e-05
9.071438173e-06
9.070476763e-06
1.122896513e-05
9.07222848e-06
9.071204609e-06
1.71964049e-05
1.719580163e-05
1.719826275e-05
1.719645829e-05
1.389630075e-05
1.38946166e-05
1.38952019e-05
1.389502156e-05
1.122648728e-05
1.122534564e-05
7.330241655e-06
7.329353795e-06
3.125061629e-06
4.786343932e-06
3.86723649e-06
4.786286133e-06
3.867093708e-06
3.125035254e-06
0.0001123825744
0.0001122085774
0.0001119541925
0.0001121750289
0.0001017237561
0.0001016930884
0.0001015995778
0.0001016441542
3.356576769e-05
3.355015102e-05
3.354386435e-05
3.35614936e-05
3.352862674e-05
3.355103893e-05
3.355685751e-05
3.353699328e-05
2.888253685e-05
2.888228417e-05
2.888018928e-05
2.888047005e-05
2.88750849e-05
2.887548979e-05
2.887816993e-05
2.887783862e-05
2.475782903e-05
2.475729259e-05
2.475623034e-05
2.47568111e-05
2.47538464e-05
2.475453823e-05
2.475571785e-05
2.475509315e-05
2.19214192e-05
2.192119111e-05
2.192071193e-05
2.192095718e-05
2.19192138e-05
2.191964625e-05
2.192039838e-05
2.192006088e-05
2.128433676e-05
2.128324063e-05
2.128388304e-05
2.128421171e-05
2.128384576e-05
2.12838699e-05
2.128370058e-05
2.128405148e-05
1.719739136e-05
1.719696665e-05
1.719765767e-05
1.71987639e-05
5.923342848e-06
4.786289398e-06
5.922337318e-06
4.786724686e-06
9.075040439e-06
7.33003654e-06
7.329185762e-06
9.073690467e-06
7.330771486e-06
7.329848436e-06
1.389514441e-05
1.3894291e-05
1.389695725e-05
1.389492509e-05
1.122888527e-05
1.122720665e-05
1.122797164e-05
1.122770493e-05
9.071320005e-06
9.070250134e-06
5.923112752e-06
5.922330222e-06
3.867539846e-06
3.124858379e-06
3.867488881e-06
3.124741754e-06
0.0001015317005
0.0001014657077
0.0001012696828
0.0001013698703
3.354457103e-05
3.351932491e-05
3.350797037e-05
3.35364434e-05
3.34791523e-05
3.351545847e-05
3.352718568e-05
3.349506329e-05
2.887243486e-05
2.887193486e-05
2.886826529e-05
2.886886475e-05
2.88591342e-05
2.886007228e-05
2.886482383e-05
2.88640832e-05
2.475322583e-05
2.475244863e-05
2.475092163e-05
2.475176884e-05
2.47472461e-05
2.474836369e-05
2.475018507e-05
2.474922761e-05
2.191877617e-05
2.191833059e-05
2.191735243e-05
2.191784252e-05
2.191533596e-05
2.191586546e-05
2.191685081e-05
2.191637568e-05
2.128298227e-05
2.128294498e-05
2.128251101e-05
2.1282879e-05
2.128114758e-05
2.12816399e-05
2.128245036e-05
2.128200909e-05
1.719896087e-05
1.71968725e-05
1.719765928e-05
1.719837391e-05
1.719765399e-05
1.719767537e-05
1.719748168e-05
1.719817093e-05
1.389573369e-05
1.38952242e-05
1.389606697e-05
1.389745475e-05
4.78628174e-06
3.867493218e-06
4.785422076e-06
3.867860673e-06
7.333280225e-06
5.922924117e-06
5.922188531e-06
7.332048963e-06
5.923581157e-06
5.922772385e-06
1.122763476e-05
1.122670204e-05
1.122929343e-05
1.12272796e-05
9.073435126e-06
9.071874248e-06
9.072689162e-06
9.072391881e-06
7.329889017e-06
7.328930949e-06
4.786095885e-06
4.785420169e-06
3.125110754e-06
3.125066379e-06
3.350173125e-05
3.346069751e-05
3.343789647e-05
3.348434541e-05
3.337718087e-05
3.343706594e-05
3.346354682e-05
3.341087952e-05
2.885457799e-05
2.885338513e-05
2.884654441e-05
2.884806797e-05
2.882851072e-05
2.883116782e-05
2.88404346e-05
2.88384291e-05
2.474623494e-05
2.47449354e-05
2.474229465e-05
2.474376776e-05
2.473578368e-05
2.473776203e-05
2.474098653e-05
2.473930814e-05
2.191476152e-05
2.191416496e-05
2.191295885e-05
2.191354758e-05
2.191012147e-05
2.191093034e-05
2.19123427e-05
2.191168326e-05
2.12806525e-05
2.128035749e-05
2.127913995e-05
2.12798703e-05
2.12772799e-05
2.127778634e-05
2.127880517e-05
2.127834515e-05
1.719683354e-05
1.719706183e-05
1.719672207e-05
1.719723434e-05
1.719589795e-05
1.719634466e-05
1.719706511e-05
1.719654884e-05
1.389761849e-05
1.38951466e-05
1.389595306e-05
1.389682609e-05
1.389596495e-05
1.38959832e-05
1.389578796e-05
1.3896611e-05
1.122795914e-05
1.122743959e-05
1.122830861e-05
1.122975407e-05
3.867490587e-06
3.125071254e-06
3.866765423e-06
3.125378254e-06
5.925762016e-06
4.785928796e-06
4.78530319e-06
5.924674244e-06
4.786500602e-06
4.785806411e-06
9.072214592e-06
9.071299307e-06
9.073674483e-06
9.071806334e-06
7.331703987e-06
7.330312096e-06
7.331104366e-06
7.330807746e-06
5.922765944e-06
5.921932524e-06
3.867341245e-06
3.866766663e-06
2.882002799e-05
2.881651574e-05
2.880174969e-05
2.880637566e-05
2.876084645e-05
2.876901676e-05
2.878973488e-05
2.87835981e-05
2.473396487e-05
2.473167316e-05
2.47268796e-05
2.472955223e-05
2.471410813e-05
2.471802627e-05
2.472435442e-05
2.472114409e-05
2.190923909e-05
2.190831388e-05
2.190623974e-05
2.190725907e-05
2.19013987e-05
2.190279814e-05
2.190516408e-05
2.190408631e-05
2.127666797e-05
2.127595843e-05
2.127468122e-05
2.12752827e-05
2.127181011e-05
2.127265387e-05
2.12741606e-05
2.127352039e-05
1.719543514e-05
1.719546774e-05
1.719421846e-05
1.719511797e-05
1.719323884e-05
1.719350446e-05
1.719425803e-05
1.719396858e-05
1.389522898e-05
1.389558443e-05
1.389532316e-05
1.389587294e-05
1.389485655e-05
1.38952431e-05
1.389585932e-05
1.389534368e-05
1.122988738e-05
1.122737925e-05
1.122813965e-05
1.122903809e-05
1.122815782e-05
1.122817334e-05
1.122799013e-05
1.122882887e-05
9.07236462e-06
9.071875413e-06
9.072701606e-06
9.074083186e-06
3.125071379e-06
3.124465754e-06
4.788362898e-06
3.867197162e-06
3.866671368e-06
4.787422494e-06
3.867685906e-06
3.867098755e-06
7.330577909e-06
7.329730612e-06
7.331830146e-06
7.330164394e-06
5.924293402e-06
5.923085423e-06
5.92381712e-06
5.92353898e-06
4.785771606e-06
4.785060623e-06
3.124952004e-06
3.124469004e-06
2.471026809e-05
2.470548835e-05
2.469488202e-05
2.470074255e-05
2.466500081e-05
2.467416425e-05
2.468896467e-05
2.468167354e-05
2.189989996e-05
2.189835922e-05
2.189492106e-05
2.189668828e-05
2.188569121e-05
2.188839349e-05
2.189297054e-05
2.189083684e-05
2.127092039e-05
2.126994835e-05
2.126749213e-05
2.126900191e-05
2.126336272e-05
2.126485391e-05
2.126699899e-05
2.126607668e-05
1.719278669e-05
1.719217175e-05
1.719126149e-05
1.719164468e-05
1.718940304e-05
1.718998089e-05
1.719108469e-05
1.71907354e-05
1.389444574e-05
1.389465601e-05
1.389348596e-05
1.389440774e-05
1.389306057e-05
1.38931753e-05
1.389372568e-05
1.38935527e-05
1.122752118e-05
1.122792232e-05
1.122772509e-05
1.122825484e-05
1.122749198e-05
1.122781783e-05
1.122833073e-05
1.122785201e-05
9.074189866e-06
9.071830725e-06
9.072513791e-06
9.073366326e-06
9.072533236e-06
9.072545687e-06
9.072381788e-06
9.073172288e-06
7.33061589e-06
7.330175675e-06
7.330925263e-06
7.332182248e-06
3.869255798e-06
3.124830129e-06
3.124392129e-06
3.86845493e-06
3.125242504e-06
3.124751004e-06
5.9232904e-06
5.922533406e-06
5.924344328e-06
5.922897935e-06
4.787038782e-06
4.786010138e-06
4.78666441e-06
4.786412982e-06
3.867047644e-06
3.866449919e-06
2.188266724e-05
2.187935991e-05
2.187156931e-05
2.187564434e-05
2.184916995e-05
2.185582802e-05
2.186693391e-05
2.186176219e-05
2.126197389e-05
2.126075572e-05
2.125772045e-05
2.125926812e-05
2.125002685e-05
2.125235199e-05
2.125622374e-05
2.125450851e-05
1.718878697e-05
1.718806761e-05
1.718568904e-05
1.718758629e-05
1.718343724e-05
1.718477525e-05
1.718620031e-05
1.718569137e-05
1.389273054e-05
1.389221226e-05
1.389157012e-05
1.389180499e-05
1.389039856e-05
1.389078984e-05
1.389159265e-05
1.38914273e-05
1.122714151e-05
1.122743536e-05
1.122639516e-05
1.122726205e-05
1.122631141e-05
1.122633372e-05
1.122672934e-05
1.12266352e-05
9.071995804e-06
9.072395647e-06
9.07224965e-06
9.072731554e-06
9.072167083e-06
9.072435484e-06
9.072854041e-06
9.072429412e-06
7.332266762e-06
7.330144319e-06
7.330738533e-06
7.3315112e-06
7.330757482e-06
7.330766872e-06
7.330623996e-06
7.331336553e-06
5.923258089e-06
5.922873913e-06
5.923533792e-06
5.924642244e-06
3.126553254e-06
3.125878754e-06
4.786165929e-06
4.785505369e-06
4.787041201e-06
4.78580799e-06
3.868087817e-06
3.867223916e-06
3.867796563e-06
3.867574164e-06
3.124692129e-06
3.124194754e-06
2.124739034e-05
2.124467022e-05
2.123800899e-05
2.124149947e-05
2.121917718e-05
2.122481437e-05
2.123436522e-05
2.122986498e-05
1.718239832e-05
1.718182641e-05
1.717963121e-05
1.718071701e-05
1.717461149e-05
1.71762029e-05
1.717883772e-05
1.717784976e-05
1.388997554e-05
1.388944545e-05
1.388728412e-05
1.388925002e-05
1.388621072e-05
1.388736777e-05
1.388829961e-05
1.388805213e-05
1.122607282e-05
1.122564572e-05
1.122519872e-05
1.12253335e-05
1.122449056e-05
1.122475143e-05
1.122533036e-05
1.122527864e-05
9.071875449e-06
9.07219742e-06
9.071302861e-06
9.072079098e-06
9.071422016e-06
9.071390048e-06
9.071668972e-06
9.071626867e-06
7.330311379e-06
7.330685381e-06
7.330579095e-06
7.331002333e-06
7.330591123e-06
7.33080861e-06
7.33114455e-06
7.330779704e-06
5.92470845e-06
5.922853144e-06
5.923359133e-06
5.924038614e-06
5.9233759e-06
5.923382959e-06
5.923260692e-06
5.923884271e-06
4.786091791e-06
4.785763331e-06
4.786332646e-06
4.787289684e-06
3.867340307e-06
3.866773704e-06
3.868060019e-06
3.867022277e-06
3.125538879e-06
3.124820379e-06
3.125314004e-06
3.125120879e-06
1.717265254e-05
1.717097838e-05
1.716630908e-05
1.716872901e-05
1.715393767e-05
1.715759159e-05
1.716425289e-05
1.716105406e-05
1.388543469e-05
1.388525252e-05
1.388367007e-05
1.38844276e-05
1.388045128e-05
1.388153384e-05
1.388331279e-05
1.388278725e-05
1.122420423e-05
1.122381591e-05
1.122192631e-05
1.122379144e-05
1.122157709e-05
1.122255404e-05
1.122314792e-05
1.122306276e-05
9.071251566e-06
9.070905554e-06
9.0705999e-06
9.07066834e-06
9.070202252e-06
9.07037199e-06
9.070784881e-06
9.070801632e-06
7.330352464e-06
7.330671246e-06
7.329919687e-06
7.330593168e-06
7.330151717e-06
7.330089304e-06
7.33028204e-06
7.330273123e-06
5.923010591e-06
5.92334707e-06
5.923271586e-06
5.923634283e-06
5.923340176e-06
5.923514507e-06
5.923780357e-06
5.923473172e-06
4.787341109e-06
4.785750609e-06
4.786175193e-06
4.786760559e-06
4.786189327e-06
4.786194405e-06
4.786091088e-06
4.786626298e-06
3.867243756e-06
3.86696672e-06
3.867450977e-06
3.868265064e-06
3.124906129e-06
3.124425879e-06
3.125493254e-06
3.124628379e-06
1.387899693e-05
1.387800638e-05
1.387474476e-05
1.387641372e-05
1.386674011e-05
1.386906427e-05
1.387369053e-05
1.387142214e-05
1.122099905e-05
1.122104396e-05
1.12199087e-05
1.12204325e-05
1.121789967e-05
1.121862849e-05
1.121981444e-05
1.121957971e-05
9.070012476e-06
9.0697303e-06
9.068120395e-06
9.069802766e-06
9.068201407e-06
9.069012074e-06
9.069376075e-06
9.069388082e-06
7.330032029e-06
7.32975464e-06
7.329551353e-06
7.329576895e-06
7.329359682e-06
7.329466012e-06
7.329755841e-06
7.329811119e-06
5.923147972e-06
5.923446312e-06
5.92282553e-06
5.923397166e-06
5.923112745e-06
5.923035581e-06
5.923164232e-06
5.923176116e-06
4.785893501e-06
4.786188286e-06
4.786136455e-06
4.786441664e-06
4.786236393e-06
4.7863744e-06
4.786582765e-06
4.78632763e-06
3.868304792e-06
3.866960189e-06
3.867312413e-06
3.867809498e-06
3.867324157e-06
3.8673276e-06
3.867241229e-06
3.867694071e-06
3.124799754e-06
3.124568629e-06
3.124976004e-06
3.125661254e-06
1.121682253e-05
1.121627357e-05
1.121400913e-05
1.121515093e-05
1.120895028e-05
1.121038507e-05
1.121357669e-05
1.121197517e-05
9.067772851e-06
9.067941556e-06
9.067132502e-06
9.067490914e-06
9.065932299e-06
9.066415588e-06
9.067192057e-06
9.067135169e-06
7.329237285e-06
7.329033951e-06
7.327688263e-06
7.329157667e-06
7.328010287e-06
7.328674301e-06
7.328883001e-06
7.328950387e-06
5.923030136e-06
5.922810611e-06
5.92268026e-06
5.922678732e-06
5.922622316e-06
5.922685213e-06
5.9228845e-06
5.922959574e-06
4.786083337e-06
4.786353108e-06
4.785846905e-06
4.786324461e-06
4.786152675e-06
4.786071034e-06
4.786152527e-06
4.786177182e-06
3.867086295e-06
3.867340521e-06
3.867306045e-06
3.867559686e-06
3.867420753e-06
3.867529184e-06
3.867690793e-06
3.86748136e-06
3.125691504e-06
3.124566629e-06
3.124856254e-06
3.125274004e-06
3.124865629e-06
3.124868129e-06
3.124796379e-06
3.125175379e-06
9.06513718e-06
9.064870316e-06
9.06331323e-06
9.064085035e-06
9.060233121e-06
9.061076709e-06
9.063255267e-06
9.062132993e-06
7.327695423e-06
7.327922921e-06
7.327351983e-06
7.327593315e-06
7.326688106e-06
7.327001491e-06
7.327495712e-06
7.327543019e-06
5.922547492e-06
5.922402399e-06
5.921293263e-06
5.922548624e-06
5.921736871e-06
5.922275226e-06
5.922379788e-06
5.922476128e-06
4.78609771e-06
4.785925597e-06
4.785846884e-06
4.785828707e-06
4.78587342e-06
4.785906412e-06
4.786039803e-06
4.786122939e-06
3.867300285e-06
3.86753868e-06
3.867129966e-06
3.867524322e-06
3.867432409e-06
3.867351779e-06
3.867399631e-06
3.867431251e-06
3.124675754e-06
3.124892254e-06
3.124870629e-06
3.125079379e-06
3.124989629e-06
3.125073879e-06
3.125198129e-06
3.125027754e-06
7.326103794e-06
7.326013694e-06
7.324957982e-06
7.325470026e-06
7.323197674e-06
7.323651919e-06
7.325115933e-06
7.32433768e-06
5.92150713e-06
5.921755156e-06
5.921357683e-06
5.921516015e-06
5.921044564e-06
5.921241128e-06
5.921541379e-06
5.921646192e-06
4.785831259e-06
4.785729552e-06
4.78482493e-06
4.785880497e-06
4.785316083e-06
4.785748908e-06
4.785785268e-06
4.785893318e-06
3.867397517e-06
3.867263471e-06
3.867221073e-06
3.867193464e-06
3.867298544e-06
3.867311565e-06
3.86739717e-06
3.867480957e-06
3.124895629e-06
3.125102629e-06
3.124775379e-06
3.125098504e-06
3.125061879e-06
3.124985754e-06
3.125009629e-06
3.125044254e-06
5.920617997e-06
5.920635277e-06
5.91993402e-06
5.920264439e-06
5.919044289e-06
5.919246263e-06
5.920207264e-06
5.919675234e-06
4.785149823e-06
4.785395997e-06
4.785124499e-06
4.785224157e-06
4.785036462e-06
4.78515276e-06
4.785321214e-06
4.785453996e-06
3.867278494e-06
3.867209016e-06
3.86647698e-06
3.867354541e-06
3.866971188e-06
3.867316687e-06
3.867309491e-06
3.867419043e-06
3.125041254e-06
3.124937754e-06
3.124920254e-06
3.124888129e-06
3.125026129e-06
3.125025879e-06
3.125077379e-06
3.125157629e-06
4.784727091e-06
4.784807158e-06
4.784355156e-06
4.784559198e-06
4.784030386e-06
4.784071645e-06
4.784680245e-06
4.784324768e-06
3.866852192e-06
3.867083914e-06
3.866903293e-06
3.866962198e-06
3.866955581e-06
3.867017189e-06
3.867097242e-06
3.867239835e-06
3.125020754e-06
3.124974753e-06
3.124386502e-06
3.125109627e-06
3.124857752e-06
3.125132002e-06
3.125097877e-06
3.125203252e-06
3.86673336e-06
3.866846533e-06
3.866568845e-06
3.866686094e-06
3.866601182e-06
3.866543688e-06
3.866907626e-06
3.866677446e-06
3.124773752e-06
3.124985002e-06
3.124869252e-06
3.124900252e-06
3.125004627e-06
3.125030002e-06
3.125051752e-06
3.125193127e-06
3.124847377e-06
3.124974502e-06
3.124817752e-06
3.124876127e-06
3.125066376e-06
3.124951876e-06
3.125147501e-06
3.125005626e-06
2.4999918e-05
2.500033e-05
4.73637063e-05
4.73644716e-05
2.499982175e-05
8.973317508e-05
8.973452064e-05
4.736359555e-05
2.50001765e-05
0.0001700046301
0.0001700067399
8.973312565e-05
4.736426195e-05
2.500011325e-05
0.000322084015
0.0003220862888
0.0001700049509
8.97343109e-05
4.736418596e-05
2.4999914e-05
0.0003150595246
0.0003150601458
0.0003220858147
0.0001700068405
8.973427432e-05
4.736387515e-05
2.500086625e-05
0.0003211238637
0.0003211256302
0.0003150608397
0.0003220878921
0.0001700070285
8.973386432e-05
4.73656258e-05
2.499951275e-05
0.0003344137509
0.0003211272717
0.0003344164418
0.0003150614286
0.0003220889439
0.0001700067302
8.973689722e-05
4.736327188e-05
2.499945375e-05
0.0003501705485
0.000321129263
0.0003344218664
0.0003501907484
0.0003150622621
0.000322089862
0.0001700112862
8.973307326e-05
4.736323652e-05
2.500025e-05
0.0009410859372
0.0003211311208
0.0003344248267
0.0003501849617
0.0003150633362
0.0003220939216
0.0001700061148
8.973314678e-05
4.736473747e-05
2.4999531e-05
0.0009411571535
0.0009770393108
0.0003211333327
0.0003344306505
0.0003502065625
0.0003150640586
0.0003220911466
0.0001700065476
8.97358315e-05
4.736354755e-05
2.500071425e-05
0.0009771398146
0.0009412314803
0.001012473938
0.0003211353754
0.000334433862
0.0003502004761
0.0003150648813
0.0003220925405
0.0001700108054
8.973404902e-05
4.736575905e-05
2.4999774e-05
0.001012619042
0.0009772438216
0.0009413078154
0.0003502230788
0.001045985699
0.0003211378221
0.0003344400144
0.0003150660533
0.000322097168
0.0001700088232
8.97379578e-05
4.736419371e-05
2.49999165e-05
0.001046196136
0.001012768287
0.0009773499865
0.0009413849547
0.000350216881
0.0003502400935
0.001076447763
0.00032114033
0.00033444351
0.0003150679522
0.0003220979161
0.0001700149141
8.973556507e-05
4.73645669e-05
2.499992175e-05
0.001076751773
0.001046411489
0.001012919932
0.0009774569178
0.0009414616144
0.0003502340421
0.0003502574552
0.00110304239
0.0003211435132
0.0003344500722
0.0003150707239
0.0003221041108
0.0001700120954
8.973643756e-05
4.736470573e-05
2.500046e-05
0.001103478212
0.001077061257
0.001046629472
0.001013072326
0.0009775631726
0.0009415364851
0.0003502518049
0.0003502749371
0.000334454029
0.001125247634
0.0003211468033
0.0003150732147
0.0003221042084
0.0001700139104
8.973695322e-05
4.736580531e-05
2.499971525e-05
0.00112586684
0.001103919063
0.001077373248
0.001046848118
0.001013223741
0.0009776672372
0.0009416084059
0.0003502697963
0.0003502921428
0.0003344610256
0.0003344654047
0.001142797503
0.0003211506361
0.0003150761441
0.0003221074785
0.0001700153246
8.973907412e-05
4.73646199e-05
2.499938875e-05
0.001143669638
0.001126487977
0.001104361314
0.001077685649
0.00104706547
0.001013372383
0.0009777675873
0.000941676378
0.0003502876337
0.0003503087993
0.0003344726164
0.0003344772365
0.001155625279
0.0003211543662
0.0003150789696
0.0003221109745
0.000170019033
8.973738141e-05
4.736418711e-05
2.500059575e-05
0.001156844931
0.001144534372
0.001127106929
0.001104803296
0.001077996493
0.001047279305
0.001013516152
0.000977862724
0.0009417395227
0.0003503050406
0.0003503247099
0.0003344844929
0.0003344892903
0.0003211585752
0.001163799364
0.0003150825251
0.0003221159989
0.0001700173212
8.973696835e-05
4.736649366e-05
2.500044175e-05
0.001158034227
0.001165498739
0.001145387831
0.00112772398
0.001105243666
0.001078303121
0.001047486765
0.001013652852
0.0009779512051
0.0009417970512
0.0003503217261
0.0003503395843
0.0003344964832
0.000334501377
0.0003211626923
0.0003211671985
0.00116745707
0.0003150859964
0.0003221171749
0.0001700175022
8.974115405e-05
4.736637301e-05
2.500027175e-05
0.001167115736
0.00115919125
0.001169831662
0.001146235731
0.0011283401
0.001105679667
0.001078601647
0.001047684536
0.001013780193
0.0009780318355
0.0009418485021
0.0003503372515
0.0003503530306
0.0003345083454
0.0003345130929
0.0003211716388
0.0003211764438
0.001166733547
0.0003150895525
0.0003221200519
0.0001700242958
8.974127854e-05
4.73662176e-05
2.50003825e-05
0.001168653847
0.001172009318
0.001160335079
0.001170098406
0.001147085238
0.001128953249
0.00110610597
0.001078887012
0.001047869009
0.001013896136
0.0009781037653
0.0009418939193
0.0003503512743
0.0003503649423
0.0003345194796
0.0003345237542
0.0003211811465
0.0003211859429
0.0003150935979
0.00116163812
0.0003221279381
0.0001700253094
8.974132129e-05
4.736655858e-05
2.4999897e-05
0.001174005711
0.001170163558
0.001173019043
0.001161487644
0.001166599108
0.001147936947
0.001129556036
0.001106514687
0.001079153429
0.001048036795
0.001013999127
0.0009781666082
0.0009419338677
0.0003503638517
0.0003503755816
0.0003345293447
0.000334533144
0.000321190274
0.0003211944045
0.0003150980913
0.0003151025382
0.001115411018
0.0003221317008
0.0001700260958
8.974217217e-05
4.736583145e-05
2.499976325e-05
0.001175944652
0.001175524377
0.001171700319
0.001170520219
0.00116265606
0.001127351656
0.001148780275
0.001130135813
0.001106896379
0.001079395256
0.001048185137
0.001014088256
0.0009782204476
0.0009419688147
0.0003503753255
0.0003503855078
0.000334538124
0.0003345416837
0.0003211980466
0.0003212016089
0.0003151063459
0.0003151096274
0.001051608003
0.0003221347554
0.0001700279436
8.974121702e-05
4.736572643e-05
2.499912125e-05
0.001177957663
0.001177925682
0.0011735136
0.00117328503
0.001137643376
0.001163823792
0.001076188589
0.001149594123
0.001130676955
0.001107241769
0.001079607974
0.00104831243
0.001014163294
0.0009782654882
0.0009419982276
0.0003503862845
0.0003503952917
0.0003345463277
0.0003345500485
0.0003212049213
0.0003212082968
0.0003151125636
0.0003151150411
0.0003221381551
0.001030559602
0.0001700271671
8.974128185e-05
4.736470781e-05
2.49992795e-05
0.001180089536
0.001180520021
0.001176302215
0.001145153054
0.001174887745
0.001092337617
0.001164954021
0.001051099198
0.001150352155
0.001131164275
0.001107543605
0.001079788958
0.001048418294
0.001014224709
0.000978301937
0.0003503967127
0.0009420208258
0.0003504042343
0.0003345549651
0.0003345594106
0.0003212114911
0.0003212148975
0.0003151176999
0.0003151205113
0.0003221394485
0.0003221413512
0.0003944049415
0.0003968825266
0.0001700277617
8.973981e-05
4.736510781e-05
2.499961575e-05
0.001182275609
0.001183387574
0.001179650839
0.001152602223
0.001105306614
0.001176440683
0.001109601551
0.001166001809
0.0004008625894
0.0004026770253
0.001151029746
0.001131586395
0.001107797869
0.001079937732
0.001048503612
0.001014273441
0.0009783301576
0.0003345646345
0.0003504104907
0.0003504051071
0.0009420361418
0.0003345688388
0.000321218955
0.0003212239882
0.0003151232338
0.0003151253093
0.0003221418468
0.0003221449195
0.0003856894163
0.0003889657275
0.000170026191
8.97407246e-05
4.736582082e-05
2.49991375e-05
0.001184385185
0.001186358272
0.001183546347
0.001160860592
0.001114456302
0.0010741321
0.001177867062
0.0004018709961
0.0003809860296
0.001166928002
0.0003922260567
0.0003948773313
0.001151609757
0.001131937685
0.001108004246
0.001080055915
0.001048570192
0.001014310779
0.0009783507184
0.0003212297512