/*--------------------------------*- C++ -*----------------------------------*\
  =========                 |
  \\      /  F ield         | OpenFOAM: The Open Source CFD Toolbox
   \\    /   O peration     | Website:  https://openfoam.org
    \\  /    A nd           | Version:  8
     \\/     M anipulation  |
\*---------------------------------------------------------------------------*/






FoamFile
{
    version     2.0;
    format      ascii;
    class       volScalarField;
    location    "0";
    object      pDDES;
}
// * * * * * * * * * * * * * * * * * * * * * * * * * * * * * * * * * * * * * //

dimensions      [0 2 -2 0 0 0 0];


internalField   nonuniform List<scalar> 
26895
(
-0.0001283609745
-0.0001289265347
-0.0001290621876
-0.0001283429301
-0.0001293944661
-0.0001294350077
-0.0001320080337
-0.0001296378323
-0.000130091561
-0.0001298583811
-0.0001319401345
-0.0001349167433
-0.0001311058586
-0.0001306634658
-0.000130386863
-0.00013198331
-0.0001345376513
-0.0001409805554
-0.0001327813225
-0.0001321654563
-0.0001314919209
-0.0001309550862
-0.0001321425807
-0.0001342722098
-0.000140178061
-0.0001449336269
-0.0001346708887
-0.0001339259761
-0.0001331279927
-0.0001323402539
-0.0001316306734
-0.000132413581
-0.0001341351162
-0.0001366762008
-0.0001439468761
-0.0001517243218
-0.0001369311794
-0.000135989103
-0.000135046459
-0.0001340110612
-0.0001331598905
-0.0001332725806
-0.0001327934879
-0.000134126909
-0.0001362919575
-0.0001430147968
-0.000150569278
-0.0001559203956
-0.0001393374987
-0.0001384573116
-0.0001372510887
-0.0001360407332
-0.0001350082166
-0.000134521717
-0.0001338473958
-0.0001340328017
-0.0001342411124
-0.0001360319293
-0.0001421575726
-0.000149414409
-0.0001546238927
-0.0001567331637
-0.0001420822227
-0.0001412358979
-0.0001399233151
-0.0001384423667
-0.0001371874823
-0.0001361893228
-0.0001352980471
-0.0001349775557
-0.0001344493503
-0.0001358625886
-0.0001358898007
-0.0001413930149
-0.0001482762018
-0.0001532816386
-0.0001552506583
-0.0001552653266
-0.0001447504328
-0.000144657839
-0.0001430885604
-0.0001414379803
-0.0001399140601
-0.0001384076313
-0.0001372167608
-0.0001363899501
-0.0001356202119
-0.0001361782488
-0.0001359561138
-0.0001401068439
-0.0001407138625
-0.0001471601281
-0.0001518964564
-0.000153683286
-0.0001537031349
-0.0001529634465
-0.0001480833744
-0.0001486786205
-0.0001468736446
-0.0001451186254
-0.0001432122808
-0.0001415228035
-0.000139892174
-0.0001384181669
-0.0001373137056
-0.0001370623067
-0.0001365400967
-0.000139197
-0.0001395852451
-0.0001448888361
-0.0001460430794
-0.0001504710672
-0.0001520396763
-0.0001520558726
-0.0001514482428
-0.0001507088891
-0.0001513241441
-0.0001530554437
-0.0001511283335
-0.0001495970791
-0.0001473170123
-0.0001455114398
-0.0001433936704
-0.0001413256832
-0.0001397448941
-0.0001386426011
-0.0001377438166
-0.000138904943
-0.0001389613026
-0.000142692239
-0.0001437369792
-0.0001473762532
-0.0001489772549
-0.0001503681124
-0.0001503377134
-0.0001498967758
-0.0001502874657
-0.0001510212314
-0.0001487581903
-0.0001493994787
-0.0001490262512
-0.0001542338869
-0.0001575584029
-0.0001555468771
-0.0001546255226
-0.0001521155791
-0.000150499036
-0.0001478945924
-0.0001455218589
-0.000143240075
-0.0001412865677
-0.000139810727
-0.000139024196
-0.0001386400399
-0.0001390643883
-0.0001401216141
-0.0001402907656
-0.0001418063912
-0.0001437940518
-0.0001444487134
-0.0001457241742
-0.0001473675657
-0.0001482444495
-0.0001486695837
-0.000148642197
-0.0001500970684
-0.0001492641313
-0.000149552885
-0.0001481355284
-0.0001479232451
-0.0001483531087
-0.0001481178042
-0.0001473217999
-0.0001564476552
-0.0001621911651
-0.0001601480762
-0.0001599244424
-0.0001572993351
-0.000156251961
-0.0001533018658
-0.0001512274175
-0.0001481966756
-0.000146773571
-0.000145464568
-0.0001431541168
-0.0001442649955
-0.0001421262423
-0.0001413093705
-0.0001431262499
-0.0001399764733
-0.0001405923394
-0.0001395386062
-0.0001392789709
-0.0001400129695
-0.0001399724861
-0.0001411409758
-0.0001414628205
-0.0001431876008
-0.0001426328381
-0.0001439797052
-0.0001449104602
-0.0001464827947
-0.0001456097525
-0.0001461989305
-0.0001477554906
-0.00014868773
-0.0001470191492
-0.000146919032
-0.0001468073024
-0.0001484419481
-0.0001474017918
-0.0001476985781
-0.0001472419681
-0.0001464708766
-0.000146910781
-0.0001473069569
-0.00014653994
-0.0001462190266
-0.0001462263026
-0.0001469624549
-0.0001669235207
-0.000165280042
-0.0001655564265
-0.0001627762977
-0.0001624210854
-0.0001593084307
-0.0001598401286
-0.000157992632
-0.0001545110135
-0.0001530665031
-0.0001513969182
-0.0001482215157
-0.0001497851772
-0.0001467299444
-0.0001453770528
-0.0001442320936
-0.0001422430505
-0.0001430622069
-0.0001414812286
-0.0001402739435
-0.0001409689867
-0.0001406277006
-0.0001400018227
-0.0001412958518
-0.0001408802636
-0.0001417467574
-0.0001422413625
-0.0001432485442
-0.0001425869705
-0.0001435376034
-0.0001443240617
-0.0001453589066
-0.0001445375092
-0.0001454299199
-0.000146223756
-0.000146162376
-0.0001460863859
-0.0001460012572
-0.0001466874965
-0.0001465692185
-0.0001468948612
-0.0001461364882
-0.0001464549423
-0.0001456864993
-0.0001454822486
-0.0001454828307
-0.0001461194042
-0.0001458984771
-0.0001458982588
-0.0001465222595
-0.0001460307831
-0.000146195729
-0.0001456227474
-0.0001462097425
-0.0001716050174
-0.0001689714991
-0.0001689101482
-0.0001656178501
-0.0001670738275
-0.0001652095234
-0.0001616885711
-0.0001635373774
-0.0001606516889
-0.0001586646395
-0.0001548450382
-0.0001570058521
-0.0001536010823
-0.0001517767378
-0.0001482150983
-0.0001499364007
-0.0001468321425
-0.0001454967278
-0.0001441297791
-0.0001421721681
-0.0001431180572
-0.0001417106105
-0.0001411984558
-0.0001416902378
-0.0001408928074
-0.0001411852136
-0.0001408064418
-0.0001407784875
-0.0001407868403
-0.0001410548721
-0.000140779186
-0.0001410449622
-0.0001410393597
-0.0001415336301
-0.0001415498264
-0.0001422234927
-0.00014151902
-0.0001422013447
-0.0001422114583
-0.0001430287666
-0.0001430549746
-0.0001439455082
-0.0001430330449
-0.0001439188054
-0.0001439167827
-0.0001447225659
-0.0001454239391
-0.0001453871664
-0.0001445411617
-0.0001453553996
-0.0001444358641
-0.0001451139105
-0.0001444337831
-0.0001451335265
-0.0001459301857
-0.0001449978154
-0.0001450003474
-0.0001456684549
-0.0001456336322
-0.0001452108554
-0.000145458398
-0.000144986072
-0.0001454025332
-0.0001452914294
-0.0001453818113
-0.0001457903854
-0.0001456751925
-0.0001452939759
-0.0001451447606
-0.0001453455188
-0.0001753835968
-0.0001719758875
-0.000173145876
-0.0001716707629
-0.0001686360483
-0.0001700632129
-0.0001677449181
-0.0001660070411
-0.0001626278099
-0.0001643804135
-0.000161089818
-0.0001590309839
-0.0001554715855
-0.0001575443166
-0.0001538627403
-0.0001538119832
-0.0001523589162
-0.0001524220424
-0.0001480931096
-0.0001481475629
-0.0001501040679
-0.0001500378858
-0.0001466064568
-0.0001465709211
-0.0001480736537
-0.0001453145524
-0.0001453544683
-0.0001443218353
-0.0001431721612
-0.0001421955385
-0.0001418786997
-0.0001430039119
-0.0001442772627
-0.0001419131731
-0.0001416748855
-0.0001417717722
-0.0001408126409
-0.0001409558026
-0.0001412330166
-0.0001409639081
-0.0001407614036
-0.0001407848904
-0.0001407766686
-0.0001406824304
-0.0001410281984
-0.0001406748779
-0.0001406749507
-0.0001404592913
-0.0001407910022
-0.000140999502
-0.0001415032748
-0.0001410013938
-0.0001421913475
-0.0001415467996
-0.0001415406878
-0.0001412294514
-0.0001418970351
-0.0001422776113
-0.0001430112607
-0.000142284669
-0.0001438969484
-0.0001430288539
-0.0001430254633
-0.0001426966337
-0.0001435430604
-0.0001438218605
-0.0001447191171
-0.0001438264881
-0.0001445207163
-0.000143833473
-0.0001438385516
-0.0001441008644
-0.0001444113004
-0.0001439582556
-0.0001444359659
-0.0001446847164
-0.0001449759002
-0.000144731137
-0.0001449808187
-0.0001449261326
-0.0001448610274
-0.0001445657981
-0.0001445225498
-0.0001447692048
-0.0001449590491
-0.0001448912226
-0.0001451415446
-0.0001450575219
-0.0001449843403
-0.0001449814881
-0.0001451669232
-0.0001814641582
-0.0001796426222
-0.000175241672
-0.0001773732074
-0.000175508947
-0.0001734137186
-0.0001697044645
-0.0001713854726
-0.0001689660712
-0.0001669451449
-0.0001631510095
-0.0001651778148
-0.0001620841795
-0.0001598278031
-0.0001597240334
-0.0001555222407
-0.0001555848721
-0.0001581937104
-0.0001581207325
-0.0001537976786
-0.000153474597
-0.0001520375663
-0.0001529195142
-0.000148125182
-0.0001506425615
-0.0001492789597
-0.0001465636742
-0.0001475807803
-0.0001455692545
-0.0001448460825
-0.0001449210104
-0.0001444506634
-0.0001425346272
-0.000142183897
-0.000143674406
-0.0001429149997
-0.0001419290493
-0.0001415365405
-0.0001418110332
-0.0001408248936
-0.0001407991367
-0.0001411883422
-0.0001409721008
-0.0001406307565
-0.0001406330703
-0.0001404820359
-0.0001405401272
-0.0001405998191
-0.0001404275972
-0.000140418284
-0.0001403205388
-0.0001403544884
-0.0001406029769
-0.0001409964025
-0.0001406636875
-0.0001416195737
-0.0001410284312
-0.0001411734556
-0.000140705306
-0.0001412943384
-0.0001422591304
-0.0001423982903
-0.0001418665051
-0.0001432366844
-0.0001430027041
-0.0001427945681
-0.0001424694492
-0.0001431963901
-0.0001438008185
-0.0001435660088
-0.0001438524632
-0.0001438136242
-0.0001433812577
-0.0001434300939
-0.0001435099111
-0.0001438167237
-0.0001438208274
-0.0001443808724
-0.000144100617
-0.0001440797496
-0.0001443394867
-0.0001446926908
-0.0001442978682
-0.0001442720823
-0.0001442014327
-0.0001444981463
-0.0001446399692
-0.0001445440284
-0.0001448460971
-0.0001447497198
-0.0001447367686
-0.0001447375398
-0.0001447107643
-0.0001447112882
-0.0001448716939
-0.0001842296042
-0.0001823562488
-0.0001776909048
-0.0001799718302
-0.0001775929122
-0.0001753686811
-0.0001710728684
-0.0001732068631
-0.0001705396135
-0.0001704712922
-0.0001683710288
-0.0001684354938
-0.0001642467832
-0.0001643208525
-0.0001664835436
-0.0001664160663
-0.0001633485954
-0.0001620502153
-0.0001609094179
-0.0001609945903
-0.0001546984422
-0.000156097085
-0.0001591543987
-0.0001579739328
-0.0001543748949
-0.0001535987249
-0.0001520187361
-0.0001527847926
-0.0001481325453
-0.0001505586406
-0.0001491539297
-0.0001472548611
-0.0001476527832
-0.0001457151229
-0.000144962105
-0.0001453230798
-0.0001443345682
-0.0001428355172
-0.0001421587076
-0.0001434062578
-0.000143334124
-0.0001419208857
-0.000141411525
-0.0001418492757
-0.0001407600794
-0.0001408945245
-0.0001413636928
-0.0001410567929
-0.0001405585208
-0.0001405310613
-0.0001403638453
-0.0001404780487
-0.0001402925263
-0.0001402446214
-0.000140209333
-0.0001402118505
-0.0001402246999
-0.0001403856149
-0.0001405737275
-0.0001403868664
-0.0001411079866
-0.0001408111857
-0.000140848002
-0.0001405746298
-0.0001411505218
-0.0001414445724
-0.0001418090396
-0.0001414948783
-0.000142805904
-0.0001421674533
-0.0001421741908
-0.0001419096661
-0.0001426217059
-0.0001433328143
-0.0001429101831
-0.0001432350546
-0.000142940873
-0.0001432321005
-0.0001435051963
-0.0001432425343
-0.000143280573
-0.0001432816207
-0.0001438214094
-0.0001438256149
-0.000143822981
-0.000143781057
-0.0001440869382
-0.0001444019435
-0.000144027872
-0.000143990299
-0.0001439905027
-0.0001438813342
-0.0001442023349
-0.0001442023786
-0.0001443325455
-0.000144332429
-0.0001442002103
-0.0001445295347
-0.000144529622
-0.0001443889923
-0.0001444311347
-0.0001444440713
-0.0001444934605
-0.0001444549562
-0.0001445234375
-0.0001867088431
-0.0001848094398
-0.0001799173042
-0.0001823394996
-0.0001797542063
-0.0001796813158
-0.000177352762
-0.0001774222328
-0.0001728378847
-0.0001729080686
-0.0001751699456
-0.0001751009258
-0.0001721511653
-0.0001708170603
-0.0001688774937
-0.0001697577973
-0.0001645780721
-0.0001656884851
-0.0001678900153
-0.0001668856276
-0.0001640155679
-0.0001627925085
-0.0001607501908
-0.0001618653769
-0.0001550487796
-0.0001572191104
-0.0001597958471
-0.0001584913698
-0.0001544002298
-0.0001534929033
-0.0001518346835
-0.0001526057604
-0.0001482680382
-0.0001508709393
-0.0001490505529
-0.0001478381309
-0.0001470782154
-0.0001460272033
-0.000144926933
-0.000145312777
-0.0001444390655
-0.0001429515105
-0.0001421322231
-0.0001421664056
-0.0001435747981
-0.0001432821155
-0.0001419657783
-0.0001414450671
-0.0001417935273
-0.0001407018572
-0.0001408282405
-0.0001412526181
-0.0001410480909
-0.0001404747309
-0.0001404356735
-0.0001402526832
-0.0001402751659
-0.0001401398622
-0.0001400891633
-0.0001400017354
-0.0001400610781
-0.000140049422
-0.0001401953923
-0.0001404095674
-0.0001401741756
-0.0001409228134
-0.0001406042138
-0.0001406233496
-0.0001403873757
-0.0001409363467
-0.0001412090933
-0.0001415887673
-0.000141244047
-0.0001423018839
-0.0001419603504
-0.0001420604531
-0.000141705561
-0.0001423766807
-0.0001426303934
-0.0001429359399
-0.0001430093689
-0.0001426894451
-0.0001427516545
-0.0001427506504
-0.0001430481498
-0.0001430480916
-0.0001429347612
-0.000143004756
-0.0001433653524
-0.0001430551638
-0.0001433656143
-0.0001435749436
-0.0001435632876
-0.0001435635932
-0.0001434825681
-0.0001438199106
-0.0001438201434
-0.0001440529595
-0.0001437017781
-0.0001437511673
-0.000143811485
-0.0001436793973
-0.0001439436019
-0.0001440010383
-0.0001441388304
-0.0001440861088
-0.0001439827029
-0.0001442567009
-0.000144322199
-0.000144151767
-0.0001441729837
-0.0001441952481
-0.0001442603971
-0.0001442034118
-0.0001442927023
-0.0001892131113
-0.0001891769643
-0.0001874614391
-0.0001875367743
-0.000182161486
-0.000182238291
-0.0001848495158
-0.0001847733511
-0.0001816225122
-0.0001804516069
-0.0001781098545
-0.0001792076218
-0.0001735129918
-0.0001746582275
-0.0001769185765
-0.0001758451544
-0.0001733965328
-0.0001716898551
-0.0001698390988
-0.0001705143077
-0.0001654325752
-0.0001663722214
-0.0001686746691
-0.0001677601103
-0.0001647606841
-0.000163467892
-0.0001610318432
-0.0001624133729
-0.0001556065108
-0.0001574727357
-0.0001600858523
-0.0001590451284
-0.0001544682018
-0.0001534046314
-0.00015179826
-0.0001524922554
-0.0001484029926
-0.000150892869
-0.0001491490257
-0.0001479314233
-0.0001472534932
-0.0001457417238
-0.0001457388571
-0.0001448767434
-0.0001453132863
-0.0001443633519
-0.0001428601972
-0.0001422058849
-0.0001424770599
-0.0001434662117
-0.0001435844752
-0.000143130077
-0.0001419413747
-0.0001413503196
-0.000141350014
-0.0001417694439
-0.0001405954536
-0.0001407448435
-0.000141184486
-0.0001408186072
-0.0001408176759
-0.0001403086644
-0.0001403080678
-0.0001403040224
-0.0001400307665
-0.0001400312758
-0.000140102522
-0.0001399321045
-0.0001399320172
-0.0001398989698
-0.0001398991299
-0.0001398049353
-0.0001398878812
-0.0001398413588
-0.000140006232
-0.0001400064793
-0.0001402109192
-0.0001402112102
-0.0001399598841
-0.0001407174714
-0.0001407179807
-0.0001404108189
-0.0001404102659
-0.000140387041
-0.0001401533082
-0.0001409963443
-0.0001406715892
-0.0001409970573
-0.0001413819409
-0.0001413807913
-0.0001409874676
-0.0001420735498
-0.0001417831227
-0.0001418644824
-0.0001418648171
-0.0001415255683
-0.0001415244333
-0.0001421620982
-0.0001421608031
-0.0001424229995
-0.0001424845686
-0.0001424843213
-0.0001426946692
-0.000142391742
-0.0001425800583
-0.0001424877555
-0.0001427781681
-0.000142855235
-0.0001427298557
-0.0001427919633
-0.0001431276323
-0.0001428624237
-0.000143195517
-0.0001432703139
-0.0001433298312
-0.0001433986617
-0.0001432903227
-0.0001435651793
-0.0001436342573
-0.0001438376785
-0.0001434970036
-0.0001435382001
-0.0001436154853
-0.0001434250444
-0.0001437175088
-0.0001437883766
-0.0001439303305
-0.0001438625186
-0.0001437122119
-0.0001440119086
-0.000144089121
-0.0001438429026
-0.0001438708859
-0.0001438990439
-0.0001439654152
-0.0001439181651
-0.0001440002088
-0.000191206811
-0.0001906350517
-0.000188552367
-0.0001896907197
-0.0001829732792
-0.0001842447236
-0.0001869804109
-0.0001856986928
-0.0001827917586
-0.0001817779848
-0.0001793781121
-0.0001803427876
-0.0001748858776
-0.0001757964783
-0.000178011469
-0.0001770934323
-0.0001744320034
-0.000172530039
-0.0001704615133
-0.0001712664089
-0.000165948426
-0.0001671205828
-0.000169419829
-0.0001682562579
-0.0001651852799
-0.0001638192334
-0.0001613579952
-0.0001626737503
-0.0001553830807
-0.0001553768088
-0.0001580170501
-0.00016030595
-0.0001589991298
-0.0001544657862
-0.0001534562616
-0.0001516785851
-0.0001525278058
-0.0001484109234
-0.0001510200818
-0.000149171974
-0.0001490197756
-0.0001476425678
-0.0001471555879
-0.0001464637899
-0.000145919621
-0.0001448023831
-0.0001453173609
-0.0001444959926
-0.0001428392134
-0.0001422389323
-0.0001425598311
-0.0001435061276
-0.0001439261832
-0.0001431325218
-0.0001419359614
-0.0001413146965
-0.000141483295
-0.000141716373
-0.0001405169605
-0.0001406550437
-0.0001410981349
-0.0001409281831
-0.0001407846285
-0.0001403351489
-0.0001402392227
-0.0001401772606
-0.000139927768
-0.0001399764442
-0.0001399877801
-0.000139789001
-0.0001398097374
-0.0001397936721
-0.0001398053282
-0.000139668351
-0.000139756623
-0.0001396935404
-0.0001398480381
-0.0001398915338
-0.0001400160982
-0.0001400781184
-0.0001398129825
-0.000140483884
-0.0001405688381
-0.0001402862545
-0.0001402131456
-0.0001402288035
-0.0001399962348
-0.0001407627569
-0.000140497621
-0.0001408586686
-0.000141181401
-0.0001411046396
-0.0001408140815
-0.0001417967287
-0.0001415119041
-0.0001416083396
-0.0001416963205
-0.0001413863793
-0.0001412866113
-0.000142003264
-0.0001419033651
-0.0001421276102
-0.0001423014619
-0.000142218938
-0.0001424769289
-0.0001421930938
-0.000142380246
-0.0001422688365
-0.0001425421797
-0.0001426415256
-0.0001424649381
-0.0001425402879
-0.0001429160475
-0.0001426188101
-0.0001430028642
-0.0001430753036
-0.0001431253913
-0.0001432124118
-0.0001430445263
-0.0001433462749
-0.0001434315636
-0.0001435751037
-0.0001432441786
-0.0001432988647
-0.0001433674042
-0.0001433639118
-0.0001434698206
-0.0001435286831
-0.0001436674938
-0.0001436123857
-0.0001436473394
-0.0001437443862
-0.0001437977771
-0.0001437700703
-0.0001438001636
-0.0001438298787
-0.0001438933832
-0.0001438518084
-0.0001439288026
-0.000192938227
-0.0001920324576
-0.0001898481278
-0.0001911235449
-0.0001843270438
-0.0001852791174
-0.0001881278586
-0.0001869500265
-0.000183687458
-0.0001824254286
-0.0001800995815
-0.0001812146656
-0.0001757982682
-0.0001766731148
-0.0001789306843
-0.000177769165
-0.0001750198426
-0.0001729275536
-0.0001708707423
-0.0001718191343
-0.0001664688025
-0.0001676120301
-0.0001698338747
-0.0001687346376
-0.0001654590451
-0.0001640827541
-0.000161636126
-0.0001630267652
-0.0001566209539
-0.0001555923373
-0.0001579882519
-0.0001604923455
-0.000159157833
-0.0001546794228
-0.0001537093631
-0.0001517726778
-0.0001526877313
-0.0001482933585
-0.0001509493013
-0.0001499065111
-0.0001490924478
-0.0001477078622
-0.0001472236181
-0.0001466780377
-0.0001460599306
-0.0001449052652
-0.0001454347366
-0.0001444798982
-0.0001428670075
-0.0001422180358
-0.0001425296068
-0.0001435736631
-0.0001440597698
-0.0001432548015
-0.0001419287
-0.000141280645
-0.0001414862927
-0.0001416598097
-0.0001404395589
-0.0001405863586
-0.0001410088735
-0.000140913995
-0.0001407478703
-0.000140285716
-0.000140174001
-0.0001400824694
-0.0001398157474
-0.0001398746535
-0.0001398434833
-0.0001396443549
-0.0001396709995
-0.0001396738371
-0.0001396852313
-0.0001394724677
-0.0001395747677
-0.0001394892897
-0.0001396972657
-0.0001397540764
-0.0001398476888
-0.0001399243047
-0.0001396055595
-0.0001402962516
-0.0001403989445
-0.0001401377376
-0.0001400455658
-0.0001400155452
-0.0001397865708
-0.0001405726507
-0.0001402721973
-0.0001406908268
-0.0001410060358
-0.0001409075048
-0.000140574848
-0.0001416117593
-0.0001413200371
-0.0001413958234
-0.0001413684804
-0.0001410723344
-0.0001409567485
-0.0001418163883
-0.000141696335
-0.0001419214968
-0.0001420990156
-0.0001419936307
-0.000142214878
-0.0001419432811
-0.0001421271008
-0.0001420280605
-0.0001422906062
-0.0001423813665
-0.0001424047223
-0.0001424829825
-0.0001426826348
-0.0001425620576
-0.0001427625102
-0.0001428338292
-0.0001428965188
-0.0001429744589
-0.0001429842378
-0.0001431052951
-0.000143180092
-0.0001435140148
-0.0001431835117
-0.0001432427089
-0.0001433075522
-0.00014333328
-0.0001434123114
-0.0001434674778
-0.0001436046878
-0.000143554993
-0.0001436149614
-0.0001436824678
-0.0001437287428
-0.000143732701
-0.0001437645988
-0.000143795347
-0.000143856887
-0.0001438193285
-0.0001438931795
-0.0001939148933
-0.000193085114
-0.0001901320356
-0.0001917425834
-0.0001848216343
-0.0001859735057
-0.0001886789687
-0.0001872290595
-0.000184004617
-0.0001827367087
-0.0001805279753
-0.0001816010626
-0.0001760648738
-0.0001771025127
-0.0001794420532
-0.0001782429463
-0.0001730853837
-0.0001753099205
-0.000173073262
-0.0001710439392
-0.0001719293214
-0.0001667578763
-0.000167949649
-0.0001701192523
-0.0001690631179
-0.0001657455869
-0.0001644085714
-0.0001618970418
-0.0001633118663
-0.0001570407767
-0.0001558200747
-0.0001582050463
-0.0001608162856
-0.0001594599162
-0.0001551232999
-0.000154095469
-0.0001520185324
-0.0001529740111
-0.0001483711676
-0.0001510453876
-0.0001501477382
-0.0001492057636
-0.0001479070634
-0.0001472646836
-0.0001466740941
-0.0001461326028
-0.0001450532145
-0.0001455986057
-0.0001445382368
-0.0001428830146
-0.0001422119822
-0.0001425271621
-0.0001436727616
-0.0001441026252
-0.0001432912395
-0.0001419191685
-0.0001412090642
-0.0001414178696
-0.0001416467421
-0.0001403286587
-0.0001404888899
-0.0001409877877
-0.0001408175885
-0.0001406511728
-0.0001401813934
-0.0001400700421
-0.0001399641333
-0.0001396460721
-0.0001397224987
-0.0001398117602
-0.0001394548744
-0.0001394717256
-0.000139489799
-0.0001395117288
-0.0001394222345
-0.0001395292202
-0.0001394372812
-0.0001395068539
-0.0001395556901
-0.0001396483858
-0.0001397185843
-0.0001395531872
-0.0001400873589
-0.0001401801419
-0.0001399365283
-0.000139850963
-0.0001399665198
-0.0001397364831
-0.0001403585629
-0.0001402184571
-0.0001404668001
-0.000140778895
-0.000140674063
-0.0001405174844
-0.000141377328
-0.000141081051
-0.0001411707781
-0.0001412767742
-0.0001409786782
-0.0001408695825
-0.0001415769511
-0.0001414699655
-0.0001416729356
-0.0001418522734
-0.0001417552849
-0.0001421556226
-0.000141886645
-0.0001420688495
-0.0001419744949
-0.0001422355563
-0.0001423224021
-0.0001423755166
-0.00014245497
-0.0001426302479
-0.0001425337105
-0.00014270666
-0.0001427772804
-0.0001428435207
-0.000142916746
-0.0001429536933
-0.0001430474222
-0.000143118843
-0.0001434837759
-0.0001431535347
-0.0001432147546
-0.0001432776335
-0.0001433235593
-0.0001433843136
-0.0001434369478
-0.0001435739396
-0.000143526835
-0.0001436031016
-0.0001436520397
-0.0001436946477
-0.0001437193132
-0.0001437510946
-0.0001437821629
-0.000143843863
-0.0001438080508
-0.0001438796317
-0.0001946358971
-0.000193934975
-0.0001909043931
-0.0001925474935
-0.000185312223
-0.0001865282393
-0.0001894014131
-0.0001879330375
-0.0001845121442
-0.0001832290145
-0.000180875737
-0.0001819913741
-0.0001762055326
-0.0001772774413
-0.0001796818688
-0.0001784694759
-0.000174205692
-0.0001757066639
-0.0001731359807
-0.000171191743
-0.0001720068831
-0.0001670212951
-0.0001681183494
-0.0001702857262
-0.0001692342339
-0.0001661176502
-0.0001647398603
-0.0001622260752
-0.0001636592206
-0.0001571810717
-0.000156122871
-0.0001582903205
-0.0001609135943
-0.0001595643553
-0.0001552341564
-0.0001541893726
-0.0001521164668
-0.0001530697918
-0.0001486305264
-0.0001511069568
-0.0001502017694
-0.0001493711752
-0.00014796092
-0.0001472998993
-0.000146686245
-0.0001461529755
-0.0001450820564
-0.0001456228492
-0.0001445681992
-0.0001428982359
-0.0001422100468
-0.0001425326627
-0.0001437125029
-0.0001441277855
-0.00014331899
-0.000141912562
-0.0001411905396
-0.0001414019498
-0.0001416412997
-0.0001403013594
-0.0001404585346
-0.0001409770339
-0.0001407939562
-0.0001406240481
-0.000140158314
-0.0001400446636
-0.0001399354951
-0.000139603173
-0.0001396877342
-0.000139798387
-0.0001394085557
-0.0001394206483
-0.0001394425344
-0.0001394691062
-0.0001393944694
-0.0001395039435
-0.0001394089486
-0.0001394595456
-0.0001395054423
-0.0001396015723
-0.0001396675652
-0.0001395253348
-0.000140040589
-0.0001401288609
-0.0001398901659
-0.0001398075983
-0.000139943033
-0.0001397108572
-0.0001403092319
-0.000140191798
-0.0001404131763
-0.000140723685
-0.0001406189258
-0.0001404885552
-0.0001413232967
-0.0001410249388
-0.00014111989
-0.0001412235579
-0.0001409235119
-0.0001408186945
-0.0001415219012
-0.000141419383
-0.0001416170708
-0.0001417970634
-0.0001417040912
-0.0001421271736
-0.0001418597385
-0.0001420408953
-0.0001419487817
-0.000142209421
-0.0001422944333
-0.0001423658978
-0.0001424451475
-0.0001426048548
-0.0001425238734
-0.0001426799427
-0.000142749981
-0.0001428172691
-0.0001428879623
-0.0001429427939
-0.0001430179691
-0.0001430873817
-0.0001434721198
-0.0001431424462
-0.0001432058052
-0.0001432677091
-0.0001433243015
-0.0001433753641
-0.000143427169
-0.0001435625745
-0.0001435187005
-0.0001436009625
-0.0001436421153
-0.0001436826424
-0.0001437180763
-0.0001437498286
-0.0001437814499
-0.0001438428444
-0.0001438082836
-0.0001438789768
-0.0001950477599
-0.0001947216515
-0.0001916358306
-0.0001932852028
-0.0001858325268
-0.0001872020803
-0.0001900872448
-0.0001886108075
-0.000185227007
-0.0001839487231
-0.0001815254218
-0.0001827142987
-0.0001767064969
-0.0001778626611
-0.0001803457853
-0.0001791108953
-0.0001748605137
-0.0001757928694
-0.0001736382546
-0.0001718326239
-0.0001726603368
-0.000167335209
-0.0001686515898
-0.0001708449272
-0.000169760111
-0.0001665794116
-0.0001651298371
-0.0001623180433
-0.0001637547248
-0.0001572284382
-0.0001562217221
-0.0001583594421
-0.0001609768951
-0.00015963646
-0.0001552969043
-0.0001542477839
-0.0001521911036
-0.0001531418966
-0.0001486942201
-0.0001511606242
-0.0001502295345
-0.0001494322642
-0.0001479952334
-0.0001473282755
-0.000146708524
-0.0001461704815
-0.0001451002172
-0.0001456361933
-0.0001445948292
-0.0001429109834
-0.0001422108617
-0.0001425405208
-0.000143746598
-0.0001441560889
-0.0001433407306
-0.0001419094042
-0.0001411813428
-0.0001413971186
-0.0001416403247
-0.0001402877242
-0.000140441276
-0.0001409734105
-0.0001407842792
-0.0001406093943
-0.0001401489717
-0.0001400330802
-0.0001399227476
-0.0001395802392
-0.0001396717707
-0.0001397957822
-0.0001393837156
-0.0001393925777
-0.0001394157443
-0.0001394471474
-0.0001393807761
-0.0001394909341
-0.0001393956627
-0.0001394346182
-0.0001394773135
-0.000139576674
-0.0001396411826
-0.0001395123545
-0.0001400179754
-0.0001401030895
-0.0001398684399
-0.0001397865417
-0.0001399348257
-0.0001396996086
-0.0001402843773
-0.0001401808258
-0.0001403862116
-0.0001406950614
-0.0001405905059
-0.0001404757058
-0.000141296885
-0.0001409967663
-0.0001410948025
-0.0001411970588
-0.0001408960088
-0.0001407925593
-0.0001414950384
-0.0001413945283
-0.000141590237
-0.0001417710591
-0.0001416798768
-0.0001421176858
-0.0001418507745
-0.0001420314074
-0.0001419401087
-0.0001422009809
-0.0001422853384
-0.000142366378
-0.0001424453803
-0.0001425966329
-0.0001425241935
-0.0001426712261
-0.000142740857
-0.0001428089163
-0.0001428776886
-0.000142942692
-0.0001430068223
-0.0001430764969
-0.0001434711012
-0.0001431423734
-0.000143206722
-0.000143267971
-0.0001433287398
-0.0001433769066
-0.0001434260048
-0.0001435623853
-0.0001435175218
-0.0001436058228
-0.0001436426246
-0.0001436827879
-0.0001437226165
-0.0001437548344
-0.0001437856117
-0.0001438470499
-0.0001438121253
-0.0001438827021
-0.0001958376088
-0.0001955150801
-0.0001924242242
-0.0001940942311
-0.000186554942
-0.0001879300544
-0.0001908435806
-0.0001893528679
-0.0001853702997
-0.0001840955083
-0.000181694224
-0.0001828687673
-0.0001768679504
-0.0001780496095
-0.0001805318898
-0.0001792987605
-0.0001748701907
-0.0001758412254
-0.0001737938146
-0.0001719949505
-0.000172883374
-0.0001678196713
-0.0001688145858
-0.0001709697244
-0.0001698991109
-0.0001667121833
-0.0001652357168
-0.0001623775461
-0.0001638188405
-0.0001572780602
-0.0001562882826
-0.0001584158454
-0.0001610174368
-0.0001596868096
-0.0001553339825
-0.0001542873797
-0.0001522466046
-0.0001531964081
-0.0001487305999
-0.0001512050803
-0.0001502661034
-0.0001494747557
-0.0001480188221
-0.000147349856
-0.0001467312395
-0.0001461869397
-0.0001451144926
-0.0001456467871
-0.0001446170936
-0.0001429196127
-0.0001422126661
-0.0001425473893
-0.0001437753963
-0.0001441828063
-0.0001433569269
-0.0001419078908
-0.0001411786361
-0.0001413980208
-0.0001416409796
-0.0001402829948
-0.0001404328359
-0.0001409725955
-0.000140782533
-0.0001406040683
-0.0001401476184
-0.0001400299079
-0.0001399200992
-0.0001395690488
-0.0001396660664
-0.0001397951855
-0.0001393723505
-0.0001393795537
-0.0001394031424
-0.0001394369319
-0.0001393738348
-0.0001394835854
-0.0001393893181
-0.0001394233695
-0.0001394646097
-0.0001395658765
-0.0001396295702
-0.0001395067666
-0.0001400095352
-0.0001400930196
-0.0001398606692
-0.0001397786837
-0.0001399342873
-0.0001396952575
-0.000140273929
-0.0001401765621
-0.0001403748902
-0.0001406826486
-0.0001405783696
-0.0001404724753
-0.0001412870333
-0.0001409860997
-0.0001410854893
-0.0001411876292
-0.0001408853423
-0.0001407822565
-0.0001414856233
-0.0001413855061
-0.000141581244
-0.0001417627063
-0.0001416721934
-0.0001421160996
-0.0001418507454
-0.0001420318586
-0.0001419408509
-0.0001422001369
-0.0001422861678
-0.0001423713547
-0.0001424499351
-0.0001425977098
-0.0001425295486
-0.0001426719973
-0.0001427420648
-0.0001428097021
-0.0001428786636
-0.0001429480908
-0.0001430074626
-0.0001430760312
-0.0001434759761
-0.0001431462006
-0.000143210782
-0.0001432741119
-0.000143334255
-0.0001433832804
-0.000143432655
-0.000143567042
-0.000143522615
-0.0001436097664
-0.0001436459133
-0.0001436875609
-0.0001437273168
-0.0001437594183
-0.0001437885221
-0.0001438490435
-0.0001438156323
-0.0001438875624
-0.0001959432557
-0.0001957065251
-0.0001925831311
-0.0001942358504
-0.0001866976818
-0.0001880760537
-0.0001910014835
-0.0001895064343
-0.0001854362781
-0.0001841643243
-0.000181785319