/*--------------------------------*- C++ -*----------------------------------*\
  =========                 |
  \\      /  F ield         | OpenFOAM: The Open Source CFD Toolbox
   \\    /   O peration     | Website:  https://openfoam.org
    \\  /    A nd           | Version:  8
     \\/     M anipulation  |
\*---------------------------------------------------------------------------*/






FoamFile
{
    version     2.0;
    format      ascii;
    class       volSymmTensorField;
    location    "0";
    object      TauDDES;
}
// * * * * * * * * * * * * * * * * * * * * * * * * * * * * * * * * * * * * * //

dimensions      [0 2 -2 0 0 0 0];


internalField   nonuniform List<symmTensor>
26895
(
( 9.380619304e-06 -2.521686611e-06 -3.435498286e-08 6.899535492e-06 -4.777417217e-08 1.024313133e-05 )
( 9.072763532e-06 -2.439773652e-06 -3.960994377e-08 6.793772627e-06 -5.582772999e-08 1.020303534e-05 )
( 1.143161899e-05 -2.808169484e-06 -1.64265515e-07 6.708093679e-06 1.779945968e-08 1.195600089e-05 )
( 7.739316061e-06 -2.474685971e-06 9.114930322e-08 7.326729701e-06 -1.121284257e-07 8.461845937e-06 )
( 8.833701941e-06 -2.374651103e-06 -4.079888072e-08 6.707888133e-06 -6.442375167e-08 1.017189334e-05 )
( 1.093646279e-05 -2.648776444e-06 -1.699266079e-07 6.494957233e-06 1.082795009e-08 1.187503858e-05 )
( 1.943450116e-05 -4.729406555e-06 -2.518333133e-07 7.543986612e-06 1.246698815e-07 1.551176683e-05 )
( 7.510047908e-06 -2.434245744e-06 8.870512147e-08 7.298051059e-06 -1.148886e-07 8.486064871e-06 )
( 8.579196219e-06 -2.313968935e-06 -4.176442303e-08 6.633852081e-06 -7.233636978e-08 1.015879479e-05 )
( 1.049434468e-05 -2.511856565e-06 -1.682850836e-07 6.315814971e-06 5.728093555e-10 1.180618892e-05 )
( 1.831972259e-05 -4.262718903e-06 -3.105183453e-07 6.995287549e-06 1.342994977e-07 1.530427835e-05 )
( 2.793093518e-05 -7.269330581e-06 -5.220838162e-08 8.985109162e-06 1.672304393e-07 1.722909474e-05 )
( 7.355654816e-06 -2.413933316e-06 8.53592752e-08 7.307708984e-06 -1.156715044e-07 8.510773114e-06 )
( 8.367296687e-06 -2.267988293e-06 -4.291913314e-08 6.579227374e-06 -8.067913626e-08 1.013891324e-05 )
( 1.008634717e-05 -2.394330295e-06 -1.640307659e-07 6.15081035e-06 -1.204463729e-08 1.175766374e-05 )
( 1.722321213e-05 -3.84867235e-06 -3.476514507e-07 6.496480637e-06 1.383214681e-07 1.512446397e-05 )
( 2.648053487e-05 -6.543918516e-06 -1.365048519e-07 8.171987247e-06 1.81863868e-07 1.689317287e-05 )
( 4.700693898e-05 -1.320249612e-05 -4.816280352e-08 1.267456446e-05 1.97982601e-07 1.926231016e-05 )
( 7.240133527e-06 -2.410005891e-06 8.072838398e-08 7.345654922e-06 -1.133379044e-07 8.543078366e-06 )
( 7.994973203e-06 -2.194163017e-06 -4.790327068e-08 6.512336768e-06 -9.349633956e-08 1.012776647e-05 )
( 8.164292012e-06 -2.225981916e-06 -4.594881631e-08 6.537476111e-06 -8.685399422e-08 1.014010104e-05 )
( 9.723242329e-06 -2.293295211e-06 -1.62707309e-07 6.016847692e-06 -2.505867158e-08 1.172054272e-05 )
( 1.620047078e-05 -3.479195129e-06 -3.583095918e-07 6.040973858e-06 1.343002225e-07 1.497571066e-05 )
( 2.496360321e-05 -5.871013855e-06 -2.276240423e-07 7.415133041e-06 2.009460189e-07 1.659139343e-05 )
( 4.590671233e-05 -1.218228135e-05 -6.908172878e-08 1.14014374e-05 2.130807104e-07 1.843579776e-05 )
( 5.722171045e-05 -1.668985351e-05 -2.320954167e-07 1.542025348e-05 2.135092387e-07 2.008869888e-05 )
( 7.166410342e-06 -2.414036089e-06 8.149933706e-08 7.384790024e-06 -1.107113334e-07 8.615479601e-06 )
( 7.734112842e-06 -2.147924306e-06 -5.655900992e-08 6.501543794e-06 -1.022599108e-07 1.01375017e-05 )
( 7.849348549e-06 -2.170831976e-06 -5.240377732e-08 6.505915735e-06 -9.804113432e-08 1.013368274e-05 )
( 9.086515092e-06 -2.135264367e-06 -1.649730876e-07 5.81205677e-06 -5.088463695e-08 1.16751944e-05 )
( 9.392147149e-06 -2.208339538e-06 -1.633859341e-07 5.899246389e-06 -3.864444764e-08 1.169557436e-05 )
( 1.52595203e-05 -3.148120641e-06 -3.494842815e-07 5.628115105e-06 1.222717572e-07 1.485962366e-05 )
( 2.344822678e-05 -5.252245501e-06 -2.955517573e-07 6.714843039e-06 2.13962366e-07 1.633476131e-05 )
( 3.402374205e-05 -8.304755283e-06 -1.213538638e-07 8.624162547e-06 2.200597606e-07 1.724015237e-05 )
( 5.676125147e-05 -1.558652366e-05 -2.531892278e-07 1.390521356e-05 2.244397024e-07 1.896290087e-05 )
( 6.229175779e-05 -1.972241262e-05 -4.428515297e-07 2.035896796e-05 2.602535005e-07 2.074702752e-05 )
( 7.114751952e-06 -2.442447112e-06 7.879910413e-08 7.473546702e-06 -1.04264231e-07 8.660454114e-06 )
( 7.531853043e-06 -2.121997113e-06 -6.312345846e-08 6.537943136e-06 -1.082502266e-07 1.014651662e-05 )
( 7.622457815e-06 -2.128889491e-06 -5.760568556e-08 6.505286819e-06 -1.071603535e-07 1.016503938e-05 )
( 8.58913063e-06 -2.027113169e-06 -1.752156464e-07 5.701338523e-06 -7.206075026e-08 1.166479706e-05 )
( 8.821537449e-06 -2.078063972e-06 -1.692207547e-07 5.744319424e-06 -6.242731843e-08 1.166994662e-05 )
( 1.360023271e-05 -2.610020147e-06 -3.224337775e-07 4.948453807e-06 8.994249612e-08 1.471766973e-05 )
( 1.439240532e-05 -2.860984296e-06 -3.336936913e-07 5.263890671e-06 1.070019024e-07 1.477583373e-05 )
( 2.19621561e-05 -4.678227924e-06 -3.260097969e-07 6.069938536e-06 2.134387529e-07 1.612400047e-05 )
( 3.22935266e-05 -7.466781426e-06 -2.102897554e-07 7.694636224e-06 2.434224768e-07 1.679610796e-05 )
( 5.608530773e-05 -1.444422742e-05 -2.938249111e-07 1.24157923e-05 2.288747396e-07 1.783735206e-05 )
( 6.193499576e-05 -1.8431645e-05 -4.933431796e-07 1.857785719e-05 2.553948946e-07 1.926235927e-05 )
( 5.072144268e-05 -1.703947783e-05 -2.80832495e-07 2.251647311e-05 1.664611347e-07 2.043343738e-05 )
( 7.112238563e-06 -2.47319781e-06 7.402894653e-08 7.555219327e-06 -9.699739678e-08 8.738635188e-06 )
( 7.399919014e-06 -2.113258915e-06 -6.448190248e-08 6.605441286e-06 -1.121766715e-07 1.01773112e-05 )
( 7.468176591e-06 -2.117752729e-06 -6.442336797e-08 6.569002835e-06 -1.087756445e-07 1.016474653e-05 )
( 8.18431181e-06 -1.946959628e-06 -1.877001097e-07 5.665467143e-06 -9.061086814e-08 1.165813501e-05 )
( 8.37897278e-06 -1.984887604e-06 -1.806076e-07 5.672263342e-06 -8.347856806e-08 1.165992398e-05 )
( 1.222939045e-05 -2.200818017e-06 -3.233447785e-07 4.453378097e-06 5.439998674e-08 1.467514994e-05 )
( 1.287492796e-05 -2.390328973e-06 -3.195609963e-07 4.678677215e-06 7.237319011e-08 1.46846287e-05 )
( 1.703853195e-05 -3.255762977e-06 -3.231818653e-07 4.907178209e-06 1.525438051e-07 1.563039405e-05 )
( 2.052278069e-05 -4.159322089e-06 -3.241112552e-07 5.489266641e-06 2.00701308e-07 1.596522634e-05 )
( 3.048374674e-05 -6.670189578e-06 -2.747886469e-07 6.831821338e-06 2.550732177e-07 1.641312338e-05 )
( 5.516024976e-05 -1.327170503e-05 -3.563922348e-07 1.09719449e-05 2.330524893e-07 1.675754538e-05 )
( 6.141961057e-05 -1.706152761e-05 -5.655456903e-07 1.674447594e-05 2.314601772e-07 1.775287274e-05 )
( 4.877901301e-05 -1.540849917e-05 -3.153618877e-07 2.053661046e-05 1.804307743e-07 1.887795042e-05 )
( 3.550936526e-05 -1.193579919e-05 -1.003789691e-07 2.094211231e-05 1.598830295e-07 1.83639404e-05 )
( 7.096188256e-06 -2.533734005e-06 8.202363944e-08 7.676901987e-06 -9.016353886e-08 8.78710307e-06 )
( 7.325998013e-06 -2.12183113e-06 -6.273749875e-08 6.698870948e-06 -1.122249529e-07 1.020977106e-05 )
( 7.363107215e-06 -2.116003998e-06 -6.899669813e-08 6.652045613e-06 -1.099943745e-07 1.020199034e-05 )
( 7.889950211e-06 -1.894380262e-06 -1.983095643e-07 5.690042144e-06 -1.015293449e-07 1.165926278e-05 )
( 8.036235158e-06 -1.921088369e-06 -1.937161045e-07 5.668026915e-06 -9.407891355e-08 1.165747472e-05 )
( 1.109033292e-05 -1.907385467e-06 -3.405597226e-07 4.13502994e-06 1.803826422e-08 1.468374285e-05 )
( 1.161928685e-05 -2.038697858e-06 -3.282498255e-07 4.271278613e-06 3.61412269e-08 1.467351831e-05 )
( 1.504271222e-05 -2.60028105e-06 -3.074798371e-07 4.181100394e-06 1.17754702e-07 1.556536517e-05 )
( 1.598177005e-05 -2.906489954e-06 -3.093579153e-07 4.515982255e-06 1.345365774e-07 1.558086296e-05 )
( 2.676488839e-05 -5.236418019e-06 -3.081132434e-07 5.341158158e-06 2.325783868e-07 1.587092083e-05 )
( 2.862151814e-05 -5.923439403e-06 -3.036831515e-07 6.046600902e-06 2.489817348e-07 1.610415347e-05 )
( 5.395634435e-05 -1.208269259e-05 -4.312825581e-07 9.578441677e-06 2.312104499e-07 1.574687667e-05 )
( 6.067300274e-05 -1.563258775e-05 -6.570205642e-07 1.490719569e-05 2.177766589e-07 1.627658276e-05 )
( 4.660210107e-05 -1.3728868e-05 -3.678743781e-07 1.848001557e-05 1.817333271e-07 1.735534715e-05 )
( 3.259114237e-05 -1.022133074e-05 -2.106102244e-07 1.87565729e-05 1.978449404e-07 1.686451833e-05 )
( 2.437776493e-05 -7.696160537e-06 -2.113413444e-07 1.725283073e-05 2.992725854e-07 1.543780127e-05 )
( 7.128607649e-06 -2.725758577e-06 1.064223767e-07 8.00498583e-06 -7.456473128e-08 8.567749319e-06 )
( 7.280058526e-06 -2.153436526e-06 -5.919857315e-08 6.826474873e-06 -1.117357158e-07 1.025045549e-05 )
( 7.308054137e-06 -2.141999175e-06 -6.142715847e-08 6.768914773e-06 -1.097819009e-07 1.023147797e-05 )
( 7.702834409e-06 -1.862814543e-06 -2.046164411e-07 5.767161838e-06 -1.12198542e-07 1.167166101e-05 )
( 7.802053915e-06 -1.876227316e-06 -2.055337944e-07 5.723028607e-06 -1.048320541e-07 1.166875245e-05 )
( 1.017501017e-05 -1.706205353e-06 -3.729406615e-07 3.965394171e-06 -1.486020995e-08 1.472732856e-05 )
( 1.060274735e-05 -1.800180598e-06 -3.548859127e-07 4.033589903e-06 1.113769521e-09 1.470578263e-05 )
( 1.335365596e-05 -2.122164688e-06 -3.179433179e-07 3.68545534e-06 8.221863368e-08 1.558983786e-05 )
( 1.413875179e-05 -2.336316811e-06 -3.082324156e-07 3.904342975e-06 1.015170952e-07 1.556622919e-05 )
( 2.31681588e-05 -4.025628186e-06 -2.946780455e-07 4.180319593e-06 1.878665614e-07 1.563874139e-05 )
( 2.494434011e-05 -4.602612989e-06 -2.990595078e-07 4.718163837e-06 2.09530981e-07 1.571736902e-05 )
( 5.070205225e-05 -9.779600987e-06 -5.33486741e-07 7.032715985e-06 2.129692405e-07 1.402197449e-05 )
( 5.246550063e-05 -1.090740625e-05 -4.95774259e-07 8.256677575e-06 2.210438197e-07 1.482018433e-05 )
( 5.967438483e-05 -1.415885345e-05 -7.466753118e-07 1.308528408e-05 2.020243812e-07 1.486108977e-05 )
( 4.410674228e-05 -1.203470038e-05 -4.407134782e-07 1.636922389e-05 1.891133934e-07 1.590024112e-05 )
( 2.949595546e-05 -8.53855272e-06 -3.246576341e-07 1.655349843e-05 2.212765651e-07 1.551462992e-05 )
( 2.163645877e-05 -6.352603577e-06 -3.416074605e-07 1.508895548e-05 3.389087055e-07 1.414964572e-05 )
( 1.788838563e-05 -5.37587357e-06 -3.70556819e-07 1.337456433e-05 3.841453804e-07 1.290514683e-05 )
( 7.156722404e-06 -2.817536142e-06 1.087407711e-07 8.147803783e-06 -6.729730018e-08 8.660472304e-06 )
( 7.260727216e-06 -2.204239991e-06 -5.544190174e-08 6.965009561e-06 -1.06072747e-07 1.031664306e-05 )
( 7.270102742e-06 -2.181267746e-06 -5.637043898e-08 6.900055268e-06 -1.088278125e-07 1.02923168e-05 )
( 7.578744771e-06 -1.856057906e-06 -2.033017381e-07 5.877664989e-06 -1.199313573e-07 1.169120969e-05 )
( 7.641716365e-06 -1.858695441e-06 -2.039044347e-07 5.815089935e-06 -1.151747284e-07 1.16795818e-05 )
( 8.448837434e-06 -1.650400009e-06 -3.488289337e-07 4.708469987e-06 -8.396948203e-08 1.344234443e-05 )
( 8.675600839e-06 -1.690467798e-06 -3.401488016e-07 4.69006045e-06 -7.253498069e-08 1.343915937e-05 )
( 1.200158931e-05 -1.800596579e-06 -3.506075927e-07 3.384342563e-06 4.119841179e-08 1.569598862e-05 )
( 1.264085404e-05 -1.949297939e-06 -3.301714173e-07 3.510912848e-06 6.151841347e-08 1.564422746e-05 )
( 1.998038533e-05 -3.103509243e-06 -2.931822678e-07 3.357712558e-06 1.554271591e-07 1.565002094e-05 )
( 2.145438157e-05 -3.519252004e-06 -2.937716772e-07 3.727822786e-06 1.70049745e-07 1.562286889e-05 )
( 4.646649904e-05 -7.671056665e-06 -5.53290306e-07 4.926854217e-06 1.835653478e-07 1.291612534e-05 )
( 4.872149293e-05 -8.703255844e-06 -5.470571978e-07 5.918273928e-06 2.003013151e-07 1.338093807e-05 )
( 5.688680176e-05 -1.128332042e-05 -8.654845942e-07 9.585350199e-06 1.586220861e-07 1.227257235e-05 )
( 5.839006189e-05 -1.268210144e-05 -8.200682373e-07 1.129860448e-05 1.782303229e-07 1.35315795e-05 )
( 4.133957191e-05 -1.037489255e-05 -5.229196631e-07 1.424409584e-05 1.928403179e-07 1.455352321e-05 )
( 2.625626803e-05 -6.997251603e-06 -4.168909129e-07 1.436064213e-05 2.432985582e-07 1.430843622e-05 )
( 1.898853589e-05 -5.166685696e-06 -4.493582537e-07 1.302115561e-05 3.392291887e-07 1.302796227e-05 )
( 1.579417585e-05 -4.573708338e-06 -3.758332241e-07 1.150441312e-05 4.013947432e-07 1.190814783e-05 )
( 1.440747201e-05 -4.511865882e-06 -3.395317094e-07 1.021335447e-05 3.144195944e-07 1.111187703e-05 )
( 7.234348232e-06 -2.922505701e-06 1.105075711e-07 8.292135135e-06 -6.109020489e-08 8.755498129e-06 )
( 7.253577678e-06 -2.273721748e-06 -5.182747032e-08 7.130000085e-06 -1.00944078e-07 1.039152085e-05 )
( 7.257980542e-06 -2.243947847e-06 -5.221070154e-08 7.053122317e-06 -1.028266183e-07 1.036344474e-05 )
( 7.490499684e-06 -1.875276439e-06 -2.025616652e-07 6.014616247e-06 -1.211116967e-07 1.173017881e-05 )
( 7.522590749e-06 -1.865199692e-06 -2.026217203e-07 5.943364158e-06 -1.203896005e-07 1.17069585e-05 )
( 8.144743333e-06 -1.591855153e-06 -3.627521039e-07 4.787468697e-06 -1.029416978e-07 1.345273631e-05 )
( 8.28564589e-06 -1.618514716e-06 -3.570816034e-07 4.741410976e-06 -9.312829263e-08 1.344670818e-05 )
( 1.132006491e-05 -1.599067218e-06 -3.893748897e-07 3.161256245e-06 1.418548212e-08 1.586255712e-05 )
( 1.163217621e-05 -1.695491733e-06 -3.758256639e-07 3.256728178e-06 2.240652464e-08 1.577543117e-05 )
( 1.713291203e-05 -2.413858738e-06 -2.752055366e-07 2.851646514e-06 1.142994677e-07 1.587136285e-05 )
( 1.848744068e-05 -2.731957466e-06 -2.879316128e-07 3.072073014e-06 1.372445411e-07 1.57423874e-05 )
( 4.121334496e-05 -5.877833701e-06 -5.324409358e-07 3.381824627e-06 1.575424307e-07 1.250035348e-05 )
( 4.393059135e-05 -6.715442396e-06 -5.501571536e-07 4.077050562e-06 1.689901978e-07 1.262604292e-05 )
( 5.343263911e-05 -8.800959222e-06 -8.305011079e-07 6.438802302e-06 1.220424082e-07 1.012133089e-05 )
( 5.522558058e-05 -9.996720109e-06 -8.614266562e-07 7.956071386e-06 1.417910198e-07 1.111676647e-05 )
( 3.535482756e-05 -7.383085176e-06 -6.505919714e-07 1.019155025e-05 1.355965225e-07 1.227432676e-05 )
( 3.84266641e-05 -8.809922292e-06 -6.021988384e-07 1.216042438e-05 1.751497081e-07 1.335350953e-05 )
( 2.302004759e-05 -5.691498245e-06 -4.688873787e-07 1.222302035e-05 2.549207352e-07 1.325000994e-05 )
( 1.64469875e-05 -4.194660505e-06 -5.051400649e-07 1.108608467e-05 3.220075939e-07 1.20657096e-05 )
( 1.385599535e-05 -3.945037406e-06 -3.7458733e-07 9.765471987e-06 3.708036616e-07 1.106539094e-05 )
( 1.399538269e-05 -4.217899004e-06 -3.31730547e-07 9.934696209e-06 3.741685646e-07 1.1019265e-05 )
( 1.487956615e-05 -4.484972123e-06 -3.556712045e-07 1.076147055e-05 3.74679189e-07 1.143013105e-05 )
( 1.255071584e-05 -4.389172773e-06 -1.716424265e-07 7.826065485e-06 2.133201917e-07 9.956250324e-06 )
( 1.318552404e-05 -4.522854397e-06 -1.963232705e-07 8.511346095e-06 2.061669022e-07 1.031064494e-05 )
( 1.264046296e-05 -4.234897006e-06 -2.172512836e-07 8.243937373e-06 2.750407759e-07 1.011539916e-05 )
( 7.227739843e-06 -3.037371926e-06 1.099653417e-07 8.383774002e-06 -5.549804172e-08 8.826297744e-06 )
( 7.282399565e-06 -2.359483915e-06 -4.908611118e-08 7.284672847e-06 -9.417899349e-08 1.050011633e-05 )
( 7.280880709e-06 -2.322327646e-06 -4.975247236e-08 7.222442491e-06 -9.776766063e-08 1.044731562e-05 )
( 7.435767202e-06 -1.916036126e-06 -2.009966948e-07 6.17609021e-06 -1.227323168e-07 1.179068204e-05 )
( 7.456412277e-06 -1.897844413e-06 -2.004147888e-07 6.096060133e-06 -1.219861616e-07 1.175056605e-05 )
( 7.924524652e-06 -1.565893399e-06 -3.695569717e-07 4.905890364e-06 -1.170142525e-07 1.348064052e-05 )
( 8.018490917e-06 -1.575518468e-06 -3.671181616e-07 4.843582246e-06 -1.100691591e-07 1.346402678e-05 )
( 1.035935566e-05 -1.397467713e-06 -4.470569479e-07 3.103547215e-06 -2.341549887e-08 1.601368967e-05 )
( 1.082844574e-05 -1.492748652e-06 -4.169724264e-07 3.118352652e-06 -3.89546706e-09 1.594249625e-05 )
( 1.532903116e-05 -1.960839427e-06 -2.659824077e-07 2.475593192e-06 8.622637893e-08 1.623972639e-05 )
( 1.61753087e-05 -2.172530003e-06 -2.71424085e-07 2.643052994e-06 9.441876614e-08 1.604512181e-05 )
( 2.480358125e-05 -3.380836688e-06 -3.571907996e-07 2.562072495e-06 1.455921961e-07 1.478150807e-05 )
( 2.589734686e-05 -3.616117965e-06 -3.694169664e-07 2.706990244e-06 1.523181936e-07 1.468606297e-05 )
( 3.838377961e-05 -5.157267879e-06 -5.112697181e-07 2.8367092e-06 1.485105088e-07 1.251953108e-05 )
( 5.081088602e-05 -6.925798971e-06 -7.173197787e-07 3.668654244e-06 1.227254813e-07 1.009689186e-05 )
( 5.195562335e-05 -7.374468623e-06 -7.317451036e-07 4.102653293e-06 1.300514754e-07 1.02591539e-05 )
( 5.161888112e-05 -7.737462511e-06 -8.037497423e-07 5.102484465e-06 1.041730116e-07 9.304791092e-06 )
( 4.22906196e-05 -7.191901204e-06 -7.518956409e-07 6.774024769e-06 8.51542481e-08 1.005649847e-05 )
( 4.351816096e-05 -7.747492418e-06 -7.848292398e-07 7.605118299e-06 9.87466322e-08 1.055003122e-05 )
( 3.22555461e-05 -6.161395959e-06 -6.437043112e-07 8.322222129e-06 8.411856101e-08 1.129342218e-05 )
( 2.419958764e-05 -5.119540674e-06 -5.152842277e-07 9.367985513e-06 1.426672327e-07 1.207407877e-05 )
( 2.583335845e-05 -5.709365723e-06 -5.166232881e-07 1.03276052e-05 1.760333959e-07 1.251275444e-05 )
( 1.988686199e-05 -4.596137387e-06 -4.71022048e-07 1.017048271e-05 2.213216135e-07 1.235621676e-05 )
( 1.404492832e-05 -3.46953766e-06 -4.803919182e-07 9.265130757e-06 2.773035419e-07 1.129327575e-05 )
( 1.477538626e-05 -3.957788067e-06 -4.506849791e-07 1.03403454e-05 3.495472356e-07 1.147457715e-05 )
( 1.372279439e-05 -3.631144182e-06 -4.512785381e-07 9.49029527e-06 3.220302744e-07 1.107520529e-05 )
( 1.315159989e-05 -3.989708603e-06 -3.093147143e-07 9.136008885e-06 3.620533278e-07 1.065036304e-05 )
( 1.16154506e-05 -3.605787469e-06 -2.604291183e-07 7.718593224e-06 3.105906217e-07 1.002924819e-05 )
( 1.13964652e-05 -3.805460437e-06 -1.909182146e-07 7.293880572e-06 2.987810035e-07 9.734720152e-06 )
( 1.196214362e-05 -4.113453997e-06 -1.790304367e-07 7.576116332e-06 2.827084131e-07 9.779339962e-06 )
( 1.192811033e-05 -4.286702278e-06 -1.424502756e-07 7.194901173e-06 2.286151641e-07 9.615147064e-06 )
( 1.140207496e-05 -4.396805707e-06 -1.103987444e-07 6.298917469e-06 1.9395398e-07 9.184295777e-06 )
( 7.496856142e-06 -3.308703981e-06 1.103202578e-07 8.72381861e-06 -3.963850759e-08 9.031521586e-06 )
( 7.329595064e-06 -2.435675469e-06 -5.545342319e-08 7.385868685e-06 -8.974862453e-08 1.070918006e-05 )
( 7.289835594e-06 -2.410451543e-06 -5.222766575e-08 7.345863196e-06 -9.098333464e-08 1.059477836e-05 )
( 7.429207471e-06 -1.974999805e-06 -2.031863033e-07 6.334334557e-06 -1.183240812e-07 1.189706836e-05 )
( 7.445205028e-06 -1.944783662e-06 -2.02384939e-07 6.261571798e-06 -1.208222074e-07 1.183090717e-05 )
( 7.790423297e-06 -1.568108701e-06 -3.71853929e-07 5.046257229e-06 -1.276094395e-07 1.353335392e-05 )
( 7.853711395e-06 -1.565336333e-06 -3.703490847e-07 4.974408057e-06 -1.220114854e-07 1.349890226e-05 )
( 9.59942281e-06 -1.253177743e-06 -5.060430794e-07 3.116470225e-06 -6.110753503e-08 1.617381895e-05 )
( 9.959303497e-06 -1.317808255e-06 -4.779607821e-07 3.101271886e-06 -4.248385466e-08 1.609294486e-05 )
( 1.179017181e-05 -1.396765583e-06 -3.950599137e-07 2.522850309e-06 1.528204585e-08 1.665183481e-05 )
( 1.209057336e-05 -1.461820716e-06 -3.747521191e-07 2.545246616e-06 2.678245714e-08 1.657595021e-05 )
( 1.279887329e-05 -1.608605089e-06 -3.371759476e-07 2.597658067e-06 4.789789543e-08 1.643307951e-05 )
( 1.24375747e-05 -1.532198326e-06 -3.560480479e-07 2.568294803e-06 3.849784136e-08 1.650587728e-05 )
( 2.020715874e-05 -2.45046931e-06 -2.764422788e-07 2.074804797e-06 1.087651569e-07 1.541217171e-05 )
( 2.104745181e-05 -2.614593086e-06 -2.902564233e-07 2.149374723e-06 1.171152917e-07 1.526852429e-05 )
( 1.449539832e-05 -1.766813511e-06 -2.854924332e-07 2.360171948e-06 6.849334966e-08 1.641550807e-05 )
( 2.290194789e-05 -2.982051683e-06 -3.266736428e-07 2.331510814e-06 1.320346996e-07 1.499573136e-05 )
( 2.194119952e-05 -2.791024826e-06 -3.06754373e-07 2.235043439e-06 1.241965464e-07 1.512818744e-05 )
( 3.598156763e-05 -4.570269994e-06 -4.963522429e-07 2.40958002e-06 1.400428005e-07 1.255333609e-05 )
( 3.739052045e-05 -4.871689271e-06 -5.067282132e-07 2.606261205e-06 1.435454919e-07 1.247530963e-05 )
( 4.965362314e-05 -6.514318102e-06 -6.99380621e-07 3.285347248e-06 1.169841823e-07 9.977195077e-06 )
( 4.848048047e-05 -6.138493063e-06 -6.776452892e-07 2.945612323e-06 1.123167408e-07 9.899327779e-06 )
( 4.95237764e-05 -6.794299225e-06 -7.819032248e-07 3.986992397e-06 8.525297091e-08 8.633718608e-06 )
( 5.043108104e-05 -7.223888133e-06 -7.919602467e-07 4.514832199e-06 9.344457652e-08 8.931559023e-06 )
( 4.107771383e-05 -6.684073924e-06 -7.168906109e-07 5.998747838e-06 7.491610887e-08 9.603217222e-06 )
( 3.988471144e-05 -6.221763215e-06 -6.840776905e-07 5.282571692e-06 6.576789957e-08 9.189196135e-06 )
( 1.844839244e-05 -3.337064527e-06 -3.797800048e-07 5.877321655e-06 -1.340044253e-08 1.068443999e-05 )
( 3.022001874e-05 -5.526768291e-06 -6.05818343e-07 7.379376257e-06 5.600374919e-08 1.084354699e-05 )
( 2.257012602e-05 -4.578083463e-06 -5.01978775e-07 8.440842066e-06 1.031731074e-07 1.167119171e-05 )
( 2.095975833e-05 -4.083654403e-06 -4.697097609e-07 7.535597888e-06 5.868658803e-08 1.131112731e-05 )
( 1.235292257e-05 -2.827136541e-06 -3.205126404e-07 7.120449027e-06 1.172389616e-07 1.099368819e-05 )
( 1.814197094e-05 -4.055502359e-06 -4.492663095e-07 9.145164768e-06 1.869279345e-07 1.193622666e-05 )
( 1.600994619e-05 -3.811470151e-06 -4.796435178e-07 9.691323612e-06 2.560810231e-07 1.184002394e-05 )
( 1.182289179e-05 -2.927733703e-06 -3.643851585e-07 7.550116607e-06 1.710845794e-07 1.073338717e-05 )
( 1.088093632e-05 -2.919153303e-06 -3.288811001e-07 7.15893475e-06 1.708360315e-07 1.022295328e-05 )
( 1.037338097e-05 -3.059488563e-06 -2.619996167e-07 6.78447077e-06 1.756432653e-07 9.793996469e-06 )
( 1.27066869e-05 -3.351105534e-06 -4.320235405e-07 8.670182979e-06 2.849350267e-07 1.072363193e-05 )
( 1.085000258e-05 -3.439579814e-06 -2.201865925e-07 7.042345715e-06 2.57265043e-07 9.724957636e-06 )
( 1.130708551e-05 -4.007005828e-06 -1.36793858e-07 6.922052762e-06 2.713422305e-07 9.467172276e-06 )
( 1.070383678e-05 -3.673050969e-06 -1.400825056e-07 6.637062143e-06 2.578966587e-07 9.449745448e-06 )
( 1.007138872e-05 -3.802535048e-06 -2.738398663e-08 5.730507837e-06 1.961377194e-07 8.928643183e-06 )
( 1.07391661e-05 -4.118683592e-06 -6.866508784e-08 6.032238616e-06 2.215381301e-07 8.978576261e-06 )
( 1.138292191e-05 -4.390954473e-06 -1.096314577e-07 6.288396435e-06 1.952067095e-07 9.17527268e-06 )
( 1.067659014e-05 -4.315897968e-06 -7.996726481e-08 5.547634828e-06 1.919650572e-07 8.727126442e-06 )
( 1.066998539e-05 -4.51099595e-06 -1.235196265e-07 5.091773801e-06 1.66570274e-07 8.537002032e-06 )
( 1.066923505e-05 -4.505940524e-06 -1.22381195e-07 5.1022771e-06 1.672598842e-07 8.540384442e-06 )
( 1.135978891e-05 -4.591739525e-06 -1.374979774e-07 5.825409971e-06 1.616453176e-07 9.020421203e-06 )
( 7.40202313e-06 -2.529734729e-06 -5.114396373e-08 7.586983429e-06 -8.871676016e-08 1.097911991e-05 )
( 7.367359558e-06 -2.470206027e-06 -5.755463661e-08 7.470745913e-06 -8.914405925e-08 1.090820115e-05 )
( 7.480584827e-06 -2.017371116e-06 -2.137966248e-07 6.44204556e-06 -1.170203205e-07 1.21441808e-05 )
( 7.438583907e-06 -1.999132564e-06 -2.079288066e-07 6.394552202e-06 -1.177003597e-07 1.200167753e-05 )
( 7.737360647e-06 -1.581612878e-06 -3.792187613e-07 5.183142093e-06 -1.332718114e-07 1.365338721e-05 )
( 7.771594937e-06 -1.575471401e-06 -3.752119824e-07 5.118905847e-06 -1.307981847e-07 1.357819929e-05 )
( 8.935159713e-06 -1.133841465e-06 -5.513441579e-07 3.216494406e-06 -1.021904694e-07 1.634374712e-05 )
( 9.032011803e-06 -1.155054633e-06 -5.444709359e-07 3.197857495e-06 -9.410796054e-08 1.629952567e-05 )
( 9.290910384e-06 -1.197392407e-06 -5.27777388e-07 3.139291266e-06 -7.737290275e-08 1.625129516e-05 )
( 1.06871521e-05 -1.194802735e-06 -4.784535577e-07 2.481618822e-06 -3.236177193e-08 1.69508312e-05 )
( 1.096467076e-05 -1.237576839e-06 -4.578151902e-07 2.483347544e-06 -2.14513225e-08 1.688234079e-05 )
( 1.151401921e-05 -1.338591119e-06 -4.157334672e-07 2.502826646e-06 3.34795125e-09 1.673173756e-05 )
( 1.124453411e-05 -1.286017891e-06 -4.379576808e-07 2.489217422e-06 -9.422416625e-09 1.68120132e-05 )
( 1.678382614e-05 -1.831603186e-06 -2.680126556e-07 1.894050229e-06 6.821727538e-08 1.613431959e-05 )
( 1.746202724e-05 -1.962365332e-06 -2.618235726e-07 1.933823569e-06 7.84158587e-08 1.597583469e-05 )
( 1.403490751e-05 -1.671276209e-06 -3.014547758e-07 2.319176019e-06 5.731237707e-08 1.651085404e-05 )
( 3.865604231e-05 -4.068726412e-06 -5.035409458e-07 1.563720843e-06 1.046831954e-07 1.070926646e-05 )
( 1.939780304e-05 -2.295068271e-06 -2.656907725e-07 2.010782055e-06 9.962184322e-08 1.556464304e-05 )
( 4.010708653e-05 -4.319312666e-06 -5.229900353e-07 1.681890922e-06 1.053488319e-07 1.051516847e-05 )
( 3.33041753e-05 -4.043655736e-06 -4.670159228e-07 2.103535962e-06 1.330562327e-07 1.278399759e-05 )
( 4.153316695e-05 -4.579982942e-06 -5.428028089e-07 1.820491889e-06 1.055005825e-07 1.035079367e-05 )
( 4.61336349e-05 -5.272669114e-06 -6.591782267e-07 2.13332828e-06 6.687051979e-08 7.914533853e-06 )
( 4.725052713e-05 -5.788963335e-06 -6.522628837e-07 2.644757387e-06 1.082523724e-07 9.871326256e-06 )
( 3.78658151e-05 -5.249632068e-06 -6.465024853e-07 3.53011319e-06 4.790065233e-08 8.100158993e-06 )
( 3.655028195e-05 -4.757710485e-06 -6.198015967e-07 2.686387234e-06 3.794108139e-08 7.530319635e-06 )
( 2.419694829e-05 -3.737440238e-06 -3.984574448e-07 3.754178806e-06 8.206590074e-09 8.979360246e-06 )
( 2.543269147e-05 -4.032909601e-06 -4.318640094e-07 4.353462373e-06 1.029426411e-08 9.305231288e-06 )
( 1.704239003e-05 -3.003715619e-06 -3.211541468e-07 5.114842224e-06 -3.391969372e-08 1.040740608e-05 )
( 1.570702989e-05 -2.718532642e-06 -2.63449607e-07 4.412145245e-06 -4.38188863e-08 1.014872214e-05 )
( 1.156298367e-05 -2.252155582e-06 -2.154094716e-07 5.040157703e-06 -5.537589232e-08 1.067961148e-05 )
( 1.284793598e-05 -2.546565156e-06 -2.788116262e-07 5.801219231e-06 -1.481571488e-08 1.086359407e-05 )
( 1.11597974e-05 -2.53380199e-06 -2.567111039e-07 6.340879281e-06 6.160625787e-08 1.079680078e-05 )
( 1.000697284e-05 -2.262760518e-06 -1.916249914e-07 5.594031791e-06 1.292043805e-09 1.064566368e-05 )
( 9.715794477e-06 -2.489049166e-06 -2.039767395e-07 6.01950569e-06 6.503512395e-08 1.033603985e-05 )
( 1.075428918e-05 -2.700922323e-06 -2.850364353e-07 6.760292308e-06 1.151493692e-07 1.051023082e-05 )
( 9.960725038e-06 -2.743462574e-06 -2.49528739e-07 6.410260994e-06 1.051754097e-07 1.001430792e-05 )
( 9.577795026e-06 -2.906574991e-06 -1.938672938e-07 6.089840554e-06 1.027883911e-07 9.583323845e-06 )
( 9.406499885e-06 -3.152082627e-06 -1.087759216e-07 5.784798759e-06 1.107234624e-07 9.222945664e-06 )
( 1.011452969e-05 -3.289730557e-06 -1.688840996e-07 6.400092843e-06 1.879573546e-07 9.451150618e-06 )
( 1.003107172e-05 -3.548028189e-06 -8.162147935e-08 6.038115316e-06 1.9764434e-07 9.178094842e-06 )
( 1.071829683e-05 -4.112104307e-06 -6.7052774e-08 6.018718977e-06 2.209739307e-07 8.972048818e-06 )
( 9.992529158e-06 -4.02699925e-06 4.971871803e-10 5.251770745e-06 1.685037887e-07 8.585969226e-06 )
( 1.005177728e-05 -3.794589475e-06 -2.606036276e-08 5.719616638e-06 1.946710455e-07 8.926125702e-06 )
( 9.313952432e-06 -3.699378794e-06 5.451833118e-08 5.010819223e-06 1.225017598e-07 8.57384839e-06 )
( 9.334722563e-06 -3.93618302e-06 6.996371837e-08 4.635211099e-06 1.147568724e-07 8.269929822e-06 )
( 9.327682164e-06 -3.929691957e-06 7.051653483e-08 4.639161489e-06 1.146557764e-07 8.273806998e-06 )
( 9.97447205e-06 -4.023638212e-06 2.432122947e-09 5.235244316e-06 1.671026553e-07 8.578228517e-06 )
( 1.003679972e-05 -4.229443675e-06 -3.351287958e-08 4.930502655e-06 1.626213475e-07 8.360395441e-06 )
( 1.004482147e-05 -4.235392225e-06 -3.501362045e-08 4.928581347e-06 1.629196191e-07 8.359872481e-06 )
( 1.065840297e-05 -4.312890724e-06 -7.885866893e-08 5.530844646e-06 1.917172057e-07 8.716714547e-06 )
( 1.040615462e-05 -4.420810001e-06 -9.66828253e-08 4.955809345e-06 1.723290382e-07 8.421244274e-06 )
( 1.06494208e-05 -4.509061e-06 -1.231729527e-07 5.068467544e-06 1.665653002e-07 8.521948985e-06 )
( 1.024626727e-05 -4.55678628e-06 -1.380503249e-07 4.420336609e-06 1.552032103e-07 8.145319953e-06 )
( 1.08591139e-05 -4.658636954e-06 -1.619628307e-07 5.038297331e-06 1.554565472e-07 8.590584002e-06 )
( 7.507921964e-06 -2.205585361e-06 -1.786806081e-07 6.931693406e-06 -1.175941122e-07 1.219249316e-05 )
( 7.504560926e-06 -2.073105861e-06 -2.10868194e-07 6.564377145e-06 -1.177098525e-07 1.225684082e-05 )
( 7.748041753e-06 -1.586898861e-06 -3.930909429e-07 5.28497776e-06 -1.37613128e-07 1.390614671e-05 )
( 7.730535799e-06 -1.587442512e-06 -3.858902744e-07 5.246949968e-06 -1.356247878e-07 1.374940166e-05 )
( 8.535584129e-06 -1.075185423e-06 -5.7236457e-07 3.415266747e-06 -1.323363108e-07 1.641507697e-05 )
( 8.572917977e-06 -1.090732212e-06 -5.681822017e-07 3.390631264e-06 -1.27587839e-07 1.636536581e-05 )
( 8.846580386e-06 -1.113744247e-06 -5.568680876e-07 3.240241313e-06 -1.09000851e-07 1.638340473e-05 )
( 8.767869986e-06 -1.09382222e-06 -5.626951065e-07 3.258691777e-06 -1.159945526e-07 1.643739779e-05 )
( 9.800598491e-06 -1.047729711e-06 -5.465404911e-07 2.526507615e-06 -7.463304286e-08 1.719672218e-05 )
( 9.968292034e-06 -1.082022663e-06 -5.319124625e-07 2.521330543e-06 -6.402971309e-08 1.712342237e-05 )
( 1.043986686e-05 -1.155291216e-06 -4.96650614e-07 2.485780215e-06 -4.098544437e-08 1.701362817e-05 )
( 1.099076326e-05 -1.120403113e-06 -4.769206043e-07 2.209210834e-06 -3.459648568e-08 1.727758536e-05 )
( 1.442367829e-05 -1.403262786e-06 -3.302027949e-07 1.779811782e-06 2.72021623e-08 1.674777741e-05 )
( 1.493303898e-05 -1.49838138e-06 -3.096819796e-07 1.801919325e-06 3.670533033e-08 1.66002701e-05 )