/*--------------------------------*- C++ -*----------------------------------*\
  =========                 |
  \\      /  F ield         | OpenFOAM: The Open Source CFD Toolbox
   \\    /   O peration     | Website:  https://openfoam.org
    \\  /    A nd           | Version:  8
     \\/     M anipulation  |
\*---------------------------------------------------------------------------*/






FoamFile
{
    version     2.0;
    format      ascii;
    class       volScalarField;
    location    "0";
    object      V;
}
// * * * * * * * * * * * * * * * * * * * * * * * * * * * * * * * * * * * * * //

dimensions      [0 3 0 0 0 0 0];


internalField   nonuniform List<scalar> 
26895
(
0.0003844548987
0.0003839981106
0.000370892269
0.001011433715
0.000382476852
0.0003695829057
0.0003567952821
0.001008220883
0.0003819635128
0.0003682471036
0.0003551415553
0.0003426689207
0.001004463624
0.0003801310312
0.0003667115178
0.0003533557825
0.0003405958875
0.0003286714408
0.001000414547
0.0003775171954
0.0003796183595
0.000365201919
0.0003514734269
0.0003383925786
0.0003261652669
0.0003149363423
0.0009963530199
0.0003747764573
0.0003770724371
0.0003618726961
0.0003634937909
0.0003494940273
0.0003360895018
0.0003235048806
0.0003119851737
0.0003015274152
0.0009925138363
0.0003721147522
0.0003744829418
0.0003584101187
0.0003600665935
0.0003453449594
0.0003474585018
0.000333703514
0.0003207738408
0.0003088765726
0.0002981750497
0.0002884307046
0.0009891420537
0.0003695750957
0.0003719648841
0.0003550977628
0.0003566155245
0.0003411014762
0.0003432265329
0.0003288061585
0.0003312711784
0.0003180230486
0.0003055936578
0.0002945638702
0.0002847113453
0.0002759906328
0.0009859582257
0.000367470357
0.0003696035152
0.0003518461785
0.0003534440524
0.0003369761134
0.0003389212056
0.000323760285
0.0003262034193
0.0003124077813
0.0003151569153
0.00030254076
0.0002909886547
0.0002809354005
0.0002710856779
0.0002639625365
0.0009833559156
0.0003654271655
0.000367532173
0.0003491691788
0.0003502727051
0.0003335604806
0.0003352547784
0.0003182338789
0.0003214375317
0.0003060040867
0.0003096889423
0.0002958300739
0.0002996455991
0.0002866639458
0.0002761880721
0.0002676699398
0.0002604638645
0.000246431644
0.0009827362885
0.0003630379331
0.0003648770762
0.0003466922024
0.0003480955408
0.0003297318474
0.0003304428041
0.0003153888462
0.0003170878256
0.0003027134413
0.0003042455195
0.000291473517
0.000293653174
0.0002826324342
0.0002846555361
0.0002737949912
0.0002643507941
0.0002487894869
0.0002531698042
0.0002501244005
0.0009834778681
0.0003632537869
0.0003636303437
0.0003417606966
0.0003446583386
0.000327837052
0.0003288324442
0.0003020375037
0.0003140501299
0.0003040583119
0.0002924460342
0.0002911308045
0.0002807143369
0.0002806421862
0.0002718443741
0.0002743315075
0.0002633493156
0.0002526944395
0.0002554498568
0.0002512743012
8.659859304e-05
8.231951746e-05
7.741183784e-05
8.314334364e-05
8.107036885e-05
0.0009856812411
0.0003624544532
0.0003636674639
0.0003435661484
0.0003423435689
0.0003219553508
0.0003239385124
0.000306349406
0.0003168669935
0.0003002709825
0.0002917540314
0.0001030114113
9.820016551e-05
0.0002919711871
9.808649765e-05
9.354248088e-05
0.0002802223809
9.455606509e-05
9.043024827e-05
0.0002726377977
9.257019414e-05
8.836904443e-05
0.0002720404642
0.0002534534016
8.238104816e-05
8.670957455e-05
8.357160215e-05
8.089136992e-05
7.746761216e-05
7.842516539e-05
8.459059123e-05
7.894941037e-05
0.001061888718
0.0003599953792
0.0003605927434
0.0003416931774
0.000344403477
0.0003309544941
0.0003124351763
0.0002982102678
0.0003025550294
0.0001075472894
0.000107772222
0.0001021170377
0.0001076397482
9.392850899e-05
9.72180707e-05
9.77793215e-05
0.0001021083037
0.0001014452789
9.509233614e-05
9.456561706e-05
9.514602944e-05
9.185344496e-05
9.033403392e-05
9.036799377e-05
9.131628363e-05
8.795004645e-05
8.72683182e-05
8.766755952e-05
8.947395448e-05
8.608470272e-05
8.567578573e-05
8.612502201e-05
7.9815394e-05
8.270179906e-05
7.986884023e-05
7.724122623e-05
8.346755005e-05
7.804683902e-05
8.010866514e-05
8.410707206e-05
7.885812064e-05
7.946803978e-05
2.626496547e-05
2.709577043e-05
2.456598398e-05
2.499046689e-05
2.527742378e-05
0.0003234679119
0.0003335038285
0.0003335749697
0.0003390839149
0.0003207249462
0.0003230134981
0.0001127967151
0.000106043435
0.0003080241945
0.0001028064079
0.00010392354
0.0001070490204
0.0001061634478
9.568932412e-05
9.92958313e-05
9.915490874e-05
8.711028068e-05
9.609749582e-05
9.180374037e-05
9.422479065e-05
8.914874739e-05
9.139962151e-05
9.398185e-05
8.62447868e-05
8.915412663e-05
8.677873684e-05
8.956827715e-05
8.28939926e-05
8.518880184e-05
8.4104631e-05
8.731615982e-05
8.153936519e-05
8.383731346e-05
8.310828142e-05
8.527983048e-05
7.721650444e-05
8.372421969e-05
7.858837405e-05
7.998092201e-05
7.836292239e-05
2.593038996e-05
2.681459003e-05
2.597825248e-05
2.671058323e-05
2.450502753e-05
2.467691723e-05
2.551941388e-05
2.477152313e-05
2.495248913e-05
2.607427879e-05
2.507329292e-05
2.544171089e-05
2.224075154e-05
2.304800113e-05
0.0003302522384
0.0003318060221
0.0003150212602
0.000317666211
0.0001130776765
0.0001134697107
0.00011393207
0.0001141603551
0.0001035107586
0.0001010399039
9.783361668e-05
9.469815777e-05
9.159464422e-05
9.408715421e-05
0.0001006564574
9.642749598e-05
9.229675292e-05
9.047743851e-05
9.489251701e-05
2.881296895e-05
8.885971668e-05
2.958192034e-05
2.872729115e-05
2.980749423e-05
8.569810091e-05
8.659343013e-05
2.992197591e-05
2.921257648e-05
8.778488058e-05
8.526291461e-05
2.926183441e-05
2.820644063e-05
2.865814999e-05
2.785535609e-05
8.378835782e-05
8.199945894e-05
2.781546862e-05
2.690137215e-05
2.785971281e-05
2.72151304e-05
8.232828426e-05
8.072101933e-05
2.762021544e-05
2.662465332e-05
2.743884728e-05
2.673542989e-05
8.309354372e-05
7.740670621e-05
2.653232678e-05
2.594390704e-05
2.458945851e-05
2.61383776e-05
2.52577145e-05
2.649650825e-05
2.553780418e-05
2.423224473e-05
2.434129294e-05
2.556113744e-05
2.473254458e-05
2.460463476e-05
2.50363977e-05
2.214209335e-05
2.357614179e-05
2.532153816e-05
2.254901001e-05
2.399310404e-05
2.259994465e-05
2.478997058e-05
2.123930457e-05
2.001634064e-05
0.000336552409
0.0003140934745
0.0001111830319
0.0001116382629
0.0001125130734
0.0001120364269
0.0001029160836
0.0001034885472
0.0001045215753
0.0001040339561
9.865773514e-05
9.829013723e-05
8.889389489e-05
8.712511413e-05
3.034127766e-05
3.057774838e-05
3.149909907e-05
3.08377641e-05
3.129294904e-05
3.28213388e-05
3.207832461e-05
3.264328699e-05
2.702375051e-05
2.857441898e-05
2.905718731e-05
3.058221088e-05
3.021642015e-05
3.096671573e-05
3.001713575e-05
2.735281646e-05
2.553444339e-05
2.64719259e-05
2.770060748e-05
2.645588322e-05
2.686692719e-05
2.655091473e-05
2.927545316e-05
2.857315983e-05
2.615234378e-05
2.700314839e-05
2.675941522e-05
2.723801718e-05
2.784353617e-05
2.600190837e-05
2.714361333e-05
2.61103128e-05
2.656956027e-05
2.665412877e-05
2.59643144e-05
2.603578582e-05
2.653317362e-05
2.546669258e-05
2.627117791e-05
2.513125466e-05
2.539742161e-05
2.531262419e-05
2.538179373e-05
2.555714857e-05
2.64031945e-05
2.532328794e-05
2.586833554e-05
2.410656727e-05
2.522658078e-05
2.532976842e-05
2.454901098e-05
2.532751376e-05
2.417156542e-05
2.427634852e-05
2.589909229e-05
2.392977249e-05
2.390513173e-05
2.444890441e-05
2.471913497e-05
2.575163042e-05
2.310784553e-05
2.411967572e-05
2.455920687e-05
2.187985724e-05
2.341257244e-05
2.22177304e-05
2.201347782e-05
2.389530973e-05
1.960274377e-05
2.376739547e-05
2.426536611e-05
1.998128341e-05
2.425333574e-05
2.066096544e-05
1.414394999e-05
1.028520377e-05
1.769693836e-05
9.955302908e-05
0.0001027456508
0.0001107300627
0.0001106067437
0.000101067724
0.0001015004517
0.000102415405
0.0001019483899
9.341370074e-05
9.397381521e-05
9.554808877e-05
9.464388273e-05
3.205646088e-05
3.063060943e-05
8.893208443e-05
3.021259379e-05
2.976620819e-05
2.841491059e-05
2.923792233e-05
2.671380373e-05
2.615765465e-05
2.745051528e-05
2.666963379e-05
2.92270067e-05
2.822578185e-05
2.886159697e-05
2.478760916e-05
2.822219474e-05
2.567447272e-05
2.66583535e-05
2.645088286e-05
2.739382172e-05
2.408273665e-05
2.458404202e-05
2.773529491e-05
2.272708305e-05
2.22120696e-05
2.713247253e-05
2.416537363e-05
2.57586896e-05
2.520965211e-05
2.302098884e-05
2.406542328e-05
2.466986625e-05
2.733776631e-05
2.555279907e-05
2.403395612e-05
2.474193807e-05
2.673985275e-05
2.328281033e-05
2.369188567e-05
2.294970309e-05
2.610005813e-05
2.414246449e-05
2.272178223e-05
2.403711773e-05
2.556390632e-05
2.245351452e-05
2.242848015e-05
2.258143855e-05
2.584246952e-05
2.429043594e-05
2.289221612e-05
2.37591327e-05
2.517326862e-05
2.247943734e-05
2.263459459e-05
2.287216593e-05
2.561494239e-05
2.312643849e-05
2.271231458e-05
2.359100515e-05
2.446462311e-05
2.499294852e-05
2.132896567e-05
1.477917861e-05
2.230698991e-05
2.127011574e-05
2.335220344e-05
1.930227175e-05
2.350659937e-05
2.00497448e-05
1.97821936e-05
1.196056454e-05
1.389083407e-05
1.201874258e-05
1.2175517e-05
1.420896022e-05
1.22856175e-05
1.462009409e-05
1.16392641e-05
1.046029049e-05
8.478425867e-06
9.551156291e-06
1.286401063e-05
9.859038972e-05
9.883335864e-05
0.0001005819524
9.922228071e-05
9.139775135e-05
9.176165593e-05
9.289065457e-05
9.229633126e-05
3.11020698e-05
3.118416596e-05
3.118577638e-05
3.119338706e-05
3.189518737e-05
3.171083052e-05
3.126158304e-05
3.138204531e-05
2.783724722e-05
2.770988431e-05
2.681117443e-05
2.537699033e-05
2.699176586e-05
2.681270611e-05
2.438657985e-05
2.588766913e-05
2.137356252e-05
2.171838642e-05
2.400341187e-05
2.256872048e-05
2.659023844e-05
2.527296095e-05
2.606628602e-05
2.336228985e-05
2.33898782e-05
2.473268858e-05
2.308308399e-05
2.146213578e-05
2.496274278e-05
2.210917516e-05
1.226641533e-05
2.559159881e-05
1.755064581e-05
1.751041373e-05
2.570786049e-05
2.271142709e-05
2.287150462e-05
2.095377466e-05
1.990758642e-05
2.29384295e-05
2.421703666e-05
2.210703899e-05
2.577143428e-05
2.232023933e-05
2.460933343e-05
2.526373191e-05
2.03852921e-05
2.117110621e-05
2.041368935e-05
2.45799009e-05
2.404386559e-05
1.988016688e-05
2.400614673e-05
2.416389004e-05
1.967990985e-05
1.99885401e-05
2.020793786e-05
2.460760975e-05
2.481773522e-05
2.045878278e-05
2.089242658e-05
2.068320099e-05
2.223232093e-05
2.180889522e-05
2.308662615e-05
2.156710045e-05
2.363213974e-05
2.032358842e-05
2.010431339e-05
1.23054341e-05
1.281561341e-05
1.493635544e-05
1.187094704e-05
1.065030947e-05
1.0841435e-05
1.893687597e-05
1.167714414e-05
1.361950047e-05
1.185777006e-05
1.402597788e-05
1.377919029e-05
1.071084281e-05
9.211598315e-06
1.13162719e-05
1.085932979e-05
9.362743066e-06
9.404732885e-06
1.091496109e-05
1.153151284e-05
1.116235564e-05
9.667534485e-06
1.176343893e-05
9.615344179e-06
8.857616492e-06
7.444333889e-06
8.15828168e-06
1.0563589e-05
9.73152444e-05
9.09630643e-05
9.104240193e-05
9.079795583e-05
3.02315532e-05
3.023224461e-05
3.033422255e-05
3.02642983e-05
3.103682793e-05
3.079916853e-05
3.043561995e-05
3.063777773e-05
2.717371558e-05
2.715401179e-05
2.682916224e-05
2.701203678e-05
2.75505218e-05
2.720764064e-05
2.675386669e-05
2.692082175e-05
2.439759163e-05
2.658535195e-05
2.323762366e-05
2.25039382e-05
2.577551637e-05
2.572148237e-05
2.125665581e-05
2.241964479e-05
1.674882815e-05
1.808589628e-05
2.056958858e-05
1.92083463e-05
2.202729138e-05
2.417481914e-05
2.532162404e-05
1.941760711e-05
1.791309181e-05
1.235033025e-05
1.929886954e-05
1.688824117e-05
2.386406676e-05
1.657105708e-05
9.815367675e-06
1.181300757e-05
1.263669639e-05
1.392534919e-05
1.415534823e-05
1.277963788e-05
1.685403794e-05
2.123464937e-05
1.640548408e-05
1.422354077e-05
1.128456999e-05
1.204837274e-05
1.729255053e-05
1.304950986e-05
1.66142875e-05
1.231299784e-05
1.255268917e-05
1.446496352e-05
1.487879055e-05
1.424063651e-05
1.218945016e-05
1.203272538e-05
1.409477766e-05
1.207620631e-05
1.19976418e-05
1.395302938e-05
1.398843096e-05
1.41340598e-05
1.230694459e-05
1.427034168e-05
1.450604938e-05
1.863761345e-05
1.797169268e-05
1.116697209e-05
1.043713178e-05
1.162677131e-05
1.925940673e-05
1.218578277e-05
1.456622291e-05
1.416465783e-05
9.626536114e-06
1.110561578e-05
1.142122097e-05
9.857315371e-06
1.199610333e-05
9.802163842e-06
9.732697028e-06
8.997994909e-06
8.627895961e-06
1.313342026e-05
1.040435943e-05
8.996685996e-06
1.111933187e-05
1.067974932e-05
9.207031965e-06
1.141655471e-05
1.124047379e-05
9.022564793e-06
8.019091032e-06
9.25468463e-06
9.13388097e-06
8.139438141e-06
8.162459823e-06
9.166238548e-06
9.397596911e-06
9.336639972e-06
8.334341817e-06
9.512528303e-06
7.958689733e-06
7.490654243e-06
6.489058903e-06
6.953485821e-06
8.703893688e-06
2.780575592e-05
2.857607074e-05
3.040476058e-05
3.050973778e-05
3.025107398e-05
3.028339803e-05
3.038992227e-05
3.033930274e-05
2.610970023e-05
2.607733696e-05
2.612191854e-05
2.607911735e-05
2.703034221e-05
2.673877186e-05
2.622913646e-05
2.642172984e-05
2.415883669e-05
2.397418915e-05
2.255482801e-05
2.338349667e-05
2.369567653e-05
2.319601656e-05
2.255100491e-05
2.280674695e-05
2.116653431e-05
2.181814723e-05
2.044659656e-05
1.978810341e-05
1.278398206e-05
1.983092265e-05
1.938664707e-05
1.972373494e-05
1.421742883e-05
1.636150655e-05
1.845475776e-05
1.753459406e-05
1.725408531e-05
1.916236328e-05
1.279549847e-05
1.660047875e-05
1.424284018e-05
1.204904682e-05
9.869920311e-06
1.661604475e-05
1.406843301e-05
1.807303854e-05
1.328211128e-05
8.585698006e-06
9.893806325e-06
9.81188106e-06
1.207994694e-05
1.146414431e-05
1.162452137e-05
9.81538602e-06
1.188240662e-05
1.34245619e-05
1.602687932e-05
1.318212444e-05
1.158404815e-05
1.070030224e-05
9.014457308e-06
1.136184914e-05
9.466048807e-06
1.369676649e-05
1.012205961e-05
1.202192299e-05
1.322862357e-05
1.121586996e-05
9.582689962e-06
9.677350447e-06
1.138825809e-05
1.171197286e-05
1.201520379e-05
1.156002969e-05
1.10017695e-05
9.401227764e-06
1.095844304e-05
9.399159858e-06
1.145097453e-05
1.09474068e-05
9.435762669e-06
9.270608024e-06
1.082372097e-05
1.135180925e-05
1.138165023e-05
1.10392866e-05
1.147792561e-05
9.518689959e-06
1.037000652e-05
1.155085703e-05
1.167841936e-05
1.354108295e-05
1.28815574e-05
1.029367458e-05
8.96987487e-06
8.413711066e-06
9.460981512e-06
9.232437824e-06
1.062310439e-05
1.393186232e-05
9.42437602e-06
1.089726662e-05
1.179183897e-05
1.152197979e-05
8.351462196e-06
9.327547081e-06
9.539521624e-06
8.494823731e-06
9.68224818e-06
8.106944106e-06
8.297407267e-06
7.591736984e-06
7.582286558e-06
1.077623191e-05
8.798073027e-06
7.855053626e-06
9.111513785e-06
8.999739532e-06
8.022001562e-06
9.328841447e-06
9.20352855e-06
7.595178988e-06
6.935010708e-06
7.594479273e-06
7.679125031e-06
7.030624916e-06
7.039721251e-06
7.694830088e-06
7.686642997e-06
7.810436561e-06
7.147654365e-06
7.726733073e-06
6.5983436e-06
6.327758324e-06
5.623946158e-06
5.916059968e-06
7.192878123e-06
2.649821299e-05
2.622547508e-05
2.64981293e-05
2.630971758e-05
2.616665555e-05
2.624729502e-05
2.643390289e-05
2.634051342e-05
2.246021322e-05
2.23937079e-05
2.236415241e-05
2.235849288e-05
2.373825039e-05
2.294161301e-05
2.242875691e-05
2.25936117e-05
2.327529231e-05
2.280119545e-05
1.849134715e-05
1.851530589e-05
2.027702959e-05
1.96613413e-05
1.876991853e-05
1.917174712e-05
1.855037415e-05
1.918487375e-05
1.906162308e-05
1.874547408e-05
1.265805181e-05
1.01872597e-05
1.56827642e-05
1.565043717e-05
1.575755095e-05
1.18878336e-05
1.34072402e-05
1.477405597e-05
1.420353616e-05
1.433358833e-05
1.516102484e-05
1.261248309e-05
1.019270952e-05
1.339668252e-05
1.138957729e-05
1.009827303e-05
8.692946959e-06
1.33920274e-05
1.165228911e-05
1.432407105e-05
1.070045344e-05
7.445341922e-06
8.282057938e-06
8.582867935e-06
1.007062651e-05
9.456179285e-06
9.567046106e-06
8.498889099e-06
9.886376819e-06
1.075421147e-05
1.285982797e-05
1.09095806e-05
9.470602955e-06
9.0338787e-06
7.938654207e-06
9.549947784e-06
8.299881961e-06
1.127796749e-05
8.705653633e-06
9.970731833e-06
1.059529745e-05
9.377145238e-06
8.299026845e-06
8.360306838e-06
9.497561649e-06
9.524565995e-06
9.747335015e-06
9.422731804e-06
9.2185222e-06
8.156291792e-06
9.188855381e-06
8.162140942e-06
9.341552201e-06
9.185537436e-06
8.186301309e-06
8.051527028e-06
9.083479785e-06
9.273318817e-06
9.297933606e-06
9.235572679e-06
9.360083152e-06
8.205333814e-06
8.772885194e-06
9.5471796e-06
9.450286599e-06
1.105542918e-05
1.057785451e-05
8.701617491e-06
7.811525353e-06
7.389658094e-06
8.070907788e-06
8.027575669e-06
8.946547087e-06
1.134074005e-05
8.198530204e-06
9.167935957e-06
9.58475481e-06
9.406462917e-06
7.193499874e-06
7.826038144e-06
7.964839461e-06
7.275945129e-06
7.848810227e-06
6.714080431e-06
7.057765789e-06
6.398089519e-06
6.609686472e-06
8.870117874e-06
7.431401411e-06
6.810335149e-06
7.490304619e-06
7.578712642e-06
6.942224965e-06
7.648982804e-06
7.560198519e-06
6.389961864e-06
5.966176607e-06
6.250629335e-06
6.45364861e-06
6.041973457e-06
6.041095212e-06
6.45762868e-06
6.307316723e-06
6.534352598e-06
6.1044484e-06
6.300948113e-06
5.478223625e-06
5.340566152e-06
4.851789568e-06
5.026000347e-06
5.959564037e-06
2.395674024e-05
2.35463417e-05
2.309975481e-05
2.325187195e-05
2.25537169e-05
2.267183787e-05
2.296478543e-05
2.28118574e-05
2.01134932e-05
2.003598887e-05
1.994700293e-05
1.997802308e-05
2.07409793e-05
2.021560178e-05
1.995238329e-05
2.001757126e-05
1.909486919e-05
1.136491233e-05
1.55515454e-05
1.460893655e-05
1.790736184e-05
1.729284792e-05
1.620880089e-05
1.675011814e-05
1.802070279e-05
1.841394292e-05
1.550427796e-05
1.531717883e-05
1.061948011e-05
9.039139816e-06
1.246961092e-05
1.265693067e-05
1.263247013e-05
9.924997996e-06
1.100123232e-05
1.188042643e-05
1.153896266e-05
1.184804111e-05
1.206796634e-05
1.052533682e-05
8.935002088e-06
1.08538394e-05
9.15438549e-06
8.456239806e-06
7.577577555e-06
1.083782947e-05
9.659133674e-06
1.142132167e-05
8.659667907e-06
6.413070825e-06
6.929867096e-06
7.442934863e-06
8.395496924e-06
7.812750034e-06
7.888419718e-06
7.31378697e-06
8.230278245e-06
8.659139201e-06
1.037324363e-05
9.044880461e-06
7.768802069e-06
7.620389563e-06
6.930570251e-06
8.023035951e-06
7.217314523e-06
9.30723412e-06
7.450324801e-06
8.279300818e-06
8.531442178e-06
7.841566911e-06
7.144296074e-06
7.182006142e-06
7.924536493e-06
7.775677608e-06
7.93961737e-06
7.708441881e-06
7.723888826e-06
7.032686503e-06
7.705121623e-06
7.044436662e-06
7.648458203e-06
7.707134831e-06
7.060068763e-06
6.951347276e-06
7.62310349e-06
7.602720161e-06
7.622601382e-06
7.729040833e-06
7.661263676e-06
7.039673318e-06
7.41634995e-06
7.908499467e-06
7.682438369e-06
9.061685736e-06
8.716531789e-06
7.352722232e-06
6.7642911e-06
6.445497148e-06
6.874306307e-06
6.937695121e-06
7.532612597e-06
9.268043622e-06
7.080392784e-06
7.706723166e-06
7.818472495e-06
7.703692461e-06
6.161259381e-06
6.560624538e-06
6.648019231e-06
6.20182211e-06
6.386878086e-06
5.566984757e-06
5.99215639e-06
5.387117832e-06
5.72535136e-06
7.321302384e-06
6.271167465e-06
5.871900494e-06
6.174826347e-06
6.378359657e-06
5.975610016e-06
6.290313222e-06
6.22785155e-06
5.373444779e-06
5.11121874e-06
5.157834248e-06
5.422050105e-06
5.171168413e-06
5.163371624e-06
5.417965438e-06
5.189878254e-06
5.467214997e-06
5.196018972e-06
5.155995333e-06
4.553704824e-06
4.503994348e-06
4.170110491e-06
4.264631834e-06
4.948805307e-06
2.076669359e-05
2.128333355e-05
2.081291765e-05
2.104676904e-05
2.020875757e-05
2.032409012e-05
2.062285101e-05
2.046202515e-05
2.013336187e-05
2.010416104e-05
2.001818534e-05
2.006520172e-05
1.963629413e-05
1.981198165e-05
1.998148449e-05
1.99256077e-05
1.185797449e-05
1.514431892e-05
9.485447008e-06
1.481685893e-05
1.303848505e-05
1.753300988e-05
1.704162385e-05
1.580922382e-05
1.651132753e-05
1.479357174e-05
1.508669283e-05
1.26211443e-05
1.252242673e-05
8.88692579e-06
7.91000864e-06
9.961603808e-06
1.025122402e-05
1.015672194e-05
8.27606648e-06
9.037198956e-06
9.59059842e-06
9.397595572e-06
9.804074467e-06
9.657791829e-06
8.780291133e-06
7.758461204e-06
8.823676703e-06
7.390902175e-06
7.076325212e-06
6.552963446e-06
8.801977901e-06
8.012524179e-06
9.155925525e-06
7.03596297e-06
5.494603504e-06
5.796372525e-06
6.410947088e-06
6.999013489e-06
6.463957886e-06
6.514640619e-06
6.26325394e-06
6.854863257e-06
7.003772182e-06
8.407046839e-06
7.510307148e-06
6.391472847e-06
6.423456544e-06
6.009433473e-06
6.737502717e-06
6.23537536e-06
7.695702956e-06
6.350698323e-06
6.881700147e-06
6.902255842e-06
6.558661596e-06
6.120952834e-06
6.142188084e-06
6.614705179e-06
6.3694189e-06
6.49014483e-06
6.3259839e-06
6.471299443e-06
6.034217486e-06
6.461049311e-06
6.050111553e-06
6.282151058e-06
6.46662832e-06
6.059940746e-06
5.973158506e-06
6.397577871e-06
6.252758705e-06
6.268472645e-06
6.470011605e-06
6.291079835e-06
6.016598266e-06
6.265766222e-06
6.56354222e-06
6.27078098e-06
7.453396171e-06
7.204855204e-06
6.210759534e-06
5.830911251e-06
5.591158831e-06
5.847509971e-06
5.966858996e-06
6.340752948e-06
7.600493309e-06
6.079832419e-06
6.474004482e-06
6.39734235e-06
6.326434533e-06
5.253538826e-06
5.495936836e-06
5.547482197e-06
5.265833092e-06
5.214518323e-06
4.620409601e-06
5.07962818e-06
4.532398457e-06
4.93433825e-06
6.057369565e-06
5.287978683e-06
5.040374619e-06
5.102737906e-06
5.365535208e-06
5.121529343e-06
5.186334796e-06
5.142855383e-06
4.516857107e-06
4.36397418e-06
4.265553149e-06
4.554171798e-06
4.41127467e-06
4.398889491e-06
4.544722343e-06
4.280644538e-06
4.574682468e-06
4.410737112e-06
4.231752686e-06
3.789063873e-06
3.796084453e-06
3.573372303e-06
3.614925496e-06
4.117445103e-06
2.072504217e-05
2.032554576e-05
2.028261526e-05
2.031535784e-05
2.016136653e-05
2.018979631e-05
2.024676758e-05
2.021714578e-05
1.635121303e-05
1.632454969e-05
1.623724467e-05
1.628758289e-05
1.565343363e-05
1.590482541e-05
1.618041349e-05
1.608136458e-05
9.988103166e-06
1.207964528e-05
8.442288418e-06
1.233596879e-05
1.101147344e-05
1.44197579e-05
1.404548742e-05
1.310058958e-05
1.36446012e-05
1.215635617e-05
1.236889354e-05
1.028107832e-05
1.02420183e-05
7.422023203e-06
6.850307031e-06
7.990424389e-06
8.31298074e-06
8.186166397e-06
6.894139793e-06
7.4308131e-06
7.767915425e-06
7.669736672e-06
8.120100033e-06
7.765710594e-06
7.322324108e-06
6.687539821e-06
7.194301498e-06
5.99052238e-06
5.918227897e-06
5.63172567e-06
7.170452967e-06
6.650533106e-06
7.374844814e-06
5.736485663e-06
4.687729922e-06
4.846851706e-06
5.492682212e-06
5.834846892e-06
5.354348122e-06
5.387342012e-06
5.342650109e-06
5.711604646e-06
5.687324074e-06
6.842058116e-06
6.244178184e-06
5.27166129e-06
5.41130458e-06
5.182687993e-06
5.65603543e-06
5.359398896e-06
6.373702576e-06
5.396026263e-06
5.724881386e-06
5.607605902e-06
5.486503537e-06
5.224142818e-06
5.234019953e-06
5.523252819e-06
5.232845745e-06
5.321695247e-06
5.205698232e-06
5.42165412e-06
5.157183553e-06
5.41791335e-06
5.175760159e-06
5.174176319e-06
5.425761239e-06
5.181678112e-06
5.113108001e-06
5.369128422e-06
5.156619496e-06
5.168748734e-06
5.417317128e-06
5.180489784e-06
5.126335543e-06
5.290995732e-06
5.456204192e-06
5.136892443e-06
6.149302102e-06
5.971387227e-06
5.244625651e-06
5.007910761e-06
4.828700453e-06
4.968705691e-06
5.111958054e-06
5.336504439e-06
6.25188642e-06
5.196928685e-06
5.435398197e-06
5.248430348e-06
5.207634049e-06
4.463466956e-06
4.601344762e-06
4.628150464e-06
4.457181714e-06
4.269568272e-06
3.837973488e-06
4.300598393e-06
3.810847806e-06
4.235380404e-06
5.02196663e-06
4.45606293e-06
4.311151001e-06
4.225608036e-06
4.511728607e-06
4.374324163e-06
4.285620731e-06
4.255828638e-06
3.795578052e-06
3.715726315e-06
3.534366409e-06
3.824388781e-06
3.752947679e-06
3.737726479e-06
3.811556479e-06
3.537969832e-06
3.828092789e-06
3.735817073e-06
3.482188523e-06
3.155540106e-06
3.197764946e-06
3.054440951e-06
3.061608486e-06
3.431463265e-06
1.670677456e-05
1.65332048e-05
1.650472386e-05
1.654055671e-05
1.637557204e-05
1.640132051e-05
1.646233666e-05
1.642829503e-05
1.328478695e-05
1.326192463e-05
1.318145691e-05
1.322934858e-05
1.253265461e-05
1.280560434e-05
1.311808604e-05
1.300294568e-05
8.400360912e-06
9.683747813e-06
7.426192986e-06
1.027653058e-05
9.287595189e-06
1.187481543e-05
1.159206736e-05
1.086703601e-05
1.128912319e-05
9.997509319e-06
1.014629635e-05
8.379526371e-06
8.379865585e-06
6.188463834e-06
5.88547029e-06
6.431611109e-06
6.748045314e-06
6.611404148e-06
5.73822471e-06
6.114778976e-06
6.309533218e-06
6.270672134e-06
6.730516843e-06
6.270205509e-06
6.104928082e-06
5.731288907e-06
5.880522423e-06
4.87195381e-06
4.947350861e-06
4.816185953e-06
5.856663672e-06
5.522792251e-06
5.965011205e-06
4.690995297e-06
3.985699957e-06
4.051892109e-06
4.685965086e-06
4.864360301e-06
4.439648041e-06
4.460179043e-06
4.542964303e-06
4.760644483e-06
4.634236719e-06
5.588856185e-06
5.197224069e-06
4.357536908e-06
4.556386399e-06
4.450409283e-06
4.746829052e-06
4.587541839e-06
5.286217073e-06
4.572934525e-06
4.765944087e-06
4.572515349e-06
4.590225311e-06
4.444935166e-06
4.447130281e-06
4.613221894e-06
4.310019775e-06
4.375270348e-06
4.293937099e-06
4.542137886e-06
4.393623219e-06
4.543248274e-06
4.413710475e-06
4.271783575e-06
4.552420029e-06
4.417024622e-06
4.36339567e-06
4.506056569e-06
4.262738363e-06
4.271845307e-06
4.53678371e-06
4.276338216e-06
4.356814299e-06
4.46596909e-06
4.542017579e-06
4.221231268e-06
5.0869116e-06
4.960690121e-06
4.42770135e-06
4.288239238e-06
4.155326505e-06
4.218166831e-06
4.365759814e-06
4.490627957e-06
5.156108665e-06
4.426010641e-06
4.561276515e-06
4.315659094e-06
4.29532547e-06
3.781205928e-06
3.850510258e-06
3.860495918e-06
3.763186481e-06
3.504469354e-06
3.190277956e-06
3.637210372e-06
3.202458823e-06
3.623493716e-06
4.170916016e-06
3.753015981e-06
3.676724128e-06
3.505530926e-06
3.792521872e-06
3.725617432e-06
3.548091462e-06
3.528153151e-06
3.188612981e-06
3.156655406e-06
2.933299344e-06
3.210977968e-06
3.185858027e-06
3.169097546e-06
3.196203967e-06
2.929292194e-06
3.203518091e-06
3.158407323e-06
2.871776887e-06
2.629860328e-06
2.692571148e-06
2.605544328e-06
2.591156344e-06
2.863861231e-06
1.347546065e-05
1.344139018e-05
1.342725175e-05
1.34607379e-05
1.33049955e-05
1.332705764e-05
1.33850526e-05
1.335150126e-05
1.079689426e-05
1.077813966e-05
1.070811298e-05
1.07507923e-05
1.007143986e-05
1.03356773e-05
1.064581848e-05
1.053006162e-05
7.056261529e-06
7.797324225e-06
6.474029525e-06
8.56515217e-06
7.825237395e-06
9.789772493e-06
9.578320623e-06
9.021986821e-06
9.349715473e-06
8.227701641e-06
8.32688927e-06
6.832792682e-06
6.858289241e-06
5.153084558e-06
5.025222234e-06
5.192207663e-06
5.482284953e-06
5.348642637e-06
4.772878145e-06
5.035121833e-06
5.137330799e-06
5.134453921e-06
5.582320341e-06
5.080865501e-06
5.088900824e-06
4.889317347e-06
4.81691439e-06
3.973809806e-06
4.134157013e-06
4.102522306e-06
4.794272982e-06
4.58819399e-06
4.842161143e-06
3.845903556e-06
3.37943281e-06
3.386643914e-06
3.984066345e-06
4.055335915e-06
3.68431272e-06
3.696125785e-06
3.853051094e-06
3.969164087e-06
3.787378172e-06
4.579808558e-06
4.329860022e-06
3.608665839e-06
3.834960403e-06
3.808277537e-06
3.982855086e-06
3.913795752e-06
4.389510598e-06
3.867160625e-06
3.970038394e-06
3.740378993e-06
3.840800281e-06
3.772424945e-06
3.769565884e-06
3.854069564e-06
3.557698423e-06
3.605427666e-06
3.549055804e-06
3.805220818e-06
3.733435026e-06
3.809835939e-06
3.754123687e-06
3.534005559e-06
3.819651427e-06
3.755733533e-06
3.714238842e-06
3.781763066e-06
3.531012771e-06
3.537617683e-06
3.800001546e-06
3.537378717e-06
3.695175374e-06
3.768243839e-06
3.785507221e-06
3.478231998e-06
4.217799327e-06
4.129427047e-06
3.737262777e-06
3.663013224e-06
3.56543008e-06
3.578301778e-06
3.718909608e-06
3.778352627e-06
4.262049168e-06
3.758305439e-06
3.826241725e-06
3.555559966e-06
3.548927052e-06
3.195670899e-06
3.220907908e-06
3.219706618e-06
3.170714166e-06
2.882527399e-06
2.653459939e-06
3.073464067e-06
2.690000736e-06
3.091703194e-06
3.469335422e-06
3.159483354e-06
3.128217952e-06
2.912622094e-06
3.187080076e-06
3.165811798e-06
2.942276574e-06
2.929409394e-06
2.678106479e-06
2.676744869e-06
2.437841698e-06
2.695557755e-06
2.699580328e-06
2.682222966e-06
2.679877031e-06
2.428971455e-06
2.680969577e-06
2.666239516e-06
2.372883223e-06
2.193109196e-06
2.266360565e-06
2.218871365e-06
2.191703304e-06
2.393072574e-06
1.087429912e-05
1.092313961e-05
1.092145431e-05
1.095015469e-05
1.081305912e-05
1.083124167e-05
1.088285666e-05
1.085227167e-05
8.777223393e-06
8.762368341e-06
8.703765334e-06
8.740224474e-06
8.119227976e-06
8.3593154e-06
8.646483101e-06
8.538364971e-06
5.921210074e-06
6.302422849e-06
5.604632345e-06
7.141749981e-06
6.587303505e-06
8.078271244e-06
7.922136462e-06
7.495582682e-06
7.750074257e-06
6.775068324e-06
6.836322353e-06
5.573647327e-06
5.614345744e-06
4.286309596e-06
4.269741206e-06
4.202112593e-06
4.457004426e-06
4.333150443e-06
3.967718513e-06
4.148356453e-06
4.191436236e-06
4.209355842e-06
4.632502997e-06
4.129810337e-06
4.241271227e-06
4.155740646e-06
3.95281166e-06
3.249324708e-06
3.453538378e-06
3.483501692e-06
3.932029263e-06
3.813087785e-06
3.942940601e-06
3.159979926e-06
2.858925485e-06
2.830155769e-06
3.377916804e-06
3.380910899e-06
3.05965661e-06
3.065436774e-06
3.261048239e-06
3.310084424e-06
3.103177056e-06
3.76334267e-06
3.61011116e-06
2.993269748e-06
3.226660678e-06
3.249551773e-06
3.341199556e-06
3.329969559e-06
3.648600025e-06
3.264617286e-06
3.308741119e-06
3.068103113e-06
3.214042747e-06
3.195066137e-06
3.189018805e-06
3.220507906e-06
2.942192167e-06
2.976885912e-06
2.938479338e-06
3.187812877e-06
3.165733539e-06
3.194857271e-06
3.186340614e-06
2.928782986e-06
3.204834708e-06
3.186860521e-06
3.15513211e-06
3.173927267e-06
2.930020292e-06
2.934588605e-06
3.183322626e-06
2.931361346e-06
3.128701881e-06
3.178573066e-06
3.158200449e-06
2.872748389e-06
3.504160867e-06
3.443479437e-06
3.153952177e-06
3.122648612e-06
3.051950797e-06
3.033587288e-06
3.161228843e-06
3.178721483e-06
3.529894869e-06
3.183648859e-06
3.208618446e-06
2.934173581e-06
2.936509359e-06
2.695600173e-06
2.693363094e-06
2.684962732e-06
2.667026052e-06
2.375206741e-06
2.208075217e-06
2.595206067e-06
2.258709064e-06
2.632164266e-06
2.889494231e-06
2.65883138e-06
2.656352405e-06
2.423159517e-06