/*--------------------------------*- C++ -*----------------------------------*\
  =========                 |
  \\      /  F ield         | OpenFOAM: The Open Source CFD Toolbox
   \\    /   O peration     | Website:  https://openfoam.org
    \\  /    A nd           | Version:  8
     \\/     M anipulation  |
\*---------------------------------------------------------------------------*/






FoamFile
{
    version     2.0;
    format      ascii;
    class       volScalarField;
    location    "0";
    object      pDDES;
}
// * * * * * * * * * * * * * * * * * * * * * * * * * * * * * * * * * * * * * //

dimensions      [0 2 -2 0 0 0 0];


internalField   nonuniform List<scalar> 
9882
(
-1.568401058e-05
-1.568439257e-05
-1.514745509e-05
-1.569290907e-05
-1.51482036e-05
-1.460182921e-05
-1.573198642e-05
-1.515740951e-05
-1.460272142e-05
-1.404731847e-05
-1.583091216e-05
-1.519702255e-05
-1.461248121e-05
-1.404819432e-05
-1.348843307e-05
-1.602997872e-05
-1.52959019e-05
-1.465134574e-05
-1.405872808e-05
-1.348855585e-05
-1.292559591e-05
-1.637567402e-05
-1.5497817e-05
-1.475156205e-05
-1.409866491e-05
-1.349868762e-05
-1.292569868e-05
-1.235641957e-05
-1.690412319e-05
-1.584608617e-05
-1.495517063e-05
-1.42007284e-05
-1.353939206e-05
-1.293494279e-05
-1.235600303e-05
-1.178253297e-05
-1.765967318e-05
-1.638119284e-05
-1.530877671e-05
-1.440764754e-05
-1.364378477e-05
-1.297549443e-05
-1.236542266e-05
-1.178307411e-05
-1.120682646e-05
-1.868343861e-05
-1.714883365e-05
-1.584927486e-05
-1.476434045e-05
-1.385277392e-05
-1.308134051e-05
-1.240735946e-05
-1.179377796e-05
-1.120800061e-05
-1.062680985e-05
-1.985576819e-05
-1.818511009e-05
-1.6625223e-05
-1.531151429e-05
-1.421366778e-05
-1.329243059e-05
-1.25136321e-05
-1.183601489e-05
-1.121902551e-05
-1.062860338e-05
-1.004099067e-05
-1.937341949e-05
-2.111060894e-05
-1.767418871e-05
-1.609570973e-05
-1.47659066e-05
-1.365613571e-05
-1.272637292e-05
-1.194290689e-05
-1.126134066e-05
-1.064003754e-05
-1.004196201e-05
-9.454173778e-06
-1.885210258e-05
-2.072159441e-05
-2.287127791e-05
-1.714903919e-05
-1.555000199e-05
-1.421389334e-05
-1.309305208e-05
-1.2156911e-05
-1.136755782e-05
-1.068249003e-05
-1.005402555e-05
-9.454376595e-06
-8.863840776e-06
-1.834974501e-05
-2.012406185e-05
-2.246612712e-05
-2.425450839e-05
-1.660945054e-05
-1.500590588e-05
-1.365547541e-05
-1.252650327e-05
-1.158355917e-05
-1.07899159e-05
-1.009848984e-05
-9.465776202e-06
-8.8644465e-06
-8.266198165e-06
-1.78108312e-05
-1.969379628e-05
-2.194654553e-05
-2.394901821e-05
-2.556062827e-05
-1.606824662e-05
-1.445298858e-05
-1.309378604e-05
-1.195625646e-05
-1.100786358e-05
-1.020772652e-05
-9.509592019e-06
-8.875069398e-06
-8.267066733e-06
-7.66190351e-06
-1.729237192e-05
-1.910227729e-05
-2.146140287e-05
-2.334499914e-05
-2.831471647e-05
-2.461986151e-05
-1.552333924e-05
-1.389887348e-05
-1.252766378e-05
-1.138466541e-05
-1.042924123e-05
-9.621445315e-06
-8.918303138e-06
-8.277326742e-06
-7.661958989e-06
-7.051145985e-06
-1.674787563e-05
-1.867170249e-05
-2.091817805e-05
-2.294425758e-05
-2.972995208e-05
-2.752543332e-05
-2.361136103e-05
-1.497966332e-05
-1.333836735e-05
-1.196041376e-05
-1.080886614e-05
-9.84566941e-06
-9.031128684e-06
-8.321603673e-06
-7.673131222e-06
-7.051120519e-06
-6.435964224e-06
-1.622144191e-05
-1.804498243e-05
-2.046938607e-05
-2.231466351e-05
-2.780664727e-05
-3.227546767e-05
-2.639069862e-05
-2.263613351e-05
-2.195864181e-05
-1.442605299e-05
-1.277821957e-05
-1.138999778e-05
-1.023223467e-05
-9.25923996e-06
-8.435467862e-06
-7.717326298e-06
-7.061960332e-06
-6.435809155e-06
-5.815339136e-06
-1.567616891e-05
-1.76049507e-05
-1.989464727e-05
-2.583927562e-05
-2.557830703e-05
-3.037601709e-05
-3.424304305e-05
-2.164057878e-05
-2.094391493e-05
-2.133057205e-05
-1.387652082e-05
-1.221329967e-05
-1.081841037e-05
-9.648249033e-06
-8.664832421e-06
-7.832739357e-06
-7.107615602e-06
-6.446507541e-06
-5.816078556e-06
-5.190890079e-06
-1.514586074e-05
-1.701049587e-05
-1.940472248e-05
-2.443014273e-05
-2.358096208e-05
-2.381829836e-05
-2.844921437e-05
-3.238384306e-05
-3.558004028e-05
-2.062056592e-05
-2.032891825e-05
-1.994890772e-05
-1.331834756e-05
-1.164961213e-05
-1.024170524e-05
-9.058250726e-06
-8.064042959e-06
-7.224277397e-06
-6.493468391e-06
-5.828276244e-06
-5.192356184e-06
-4.564253231e-06
-1.458279439e-05
-1.65683341e-05
-1.887631879e-05
-2.236556247e-05
-2.175540976e-05
-2.147849045e-05
-2.647844121e-05
-3.048189683e-05
-3.373487561e-05
-3.707758151e-05
-1.890951899e-05
-1.932238956e-05
-1.956554115e-05
-1.842834536e-05
-1.27648027e-05
-1.107948992e-05
-9.657552255e-06
-8.460941899e-06
-7.457431821e-06
-6.609764114e-06
-5.873084319e-06
-5.203987712e-06
-4.564829396e-06
-3.934407687e-06
-1.404443447e-05
-1.595689355e-05
-2.024982859e-05
-1.955528205e-05
-2.448958367e-05
-1.932962005e-05
-1.850841727e-05
-2.851503268e-05
-3.181558714e-05
-3.51842973e-05
-3.850178109e-05
-1.738887295e-05
-1.821835212e-05
-1.789971793e-05
-1.78465616e-05
-1.220104514e-05
-1.050400624e-05
-9.066281564e-06
-7.859034667e-06
-6.846022188e-06
-5.991881153e-06
-5.251044968e-06
-4.576894753e-06
-3.934646429e-06
-3.303629455e-06
-1.550238085e-05
-1.348295245e-05
-1.739385334e-05
-1.723585046e-05
-1.707576484e-05
-2.230216342e-05
-1.802290899e-05
-2.655416938e-05
-1.628296923e-05
-1.679359775e-05
-1.723642708e-05
-2.983245031e-05
-3.32145828e-05
-3.651248699e-05
-3.959669266e-05
-1.674116538e-05
-1.628823884e-05
-1.163701563e-05
-9.919865079e-06
-8.46963394e-06
-7.250481758e-06
-6.228155144e-06
-5.368459824e-06
-4.6236255e-06
-3.946199286e-06
-3.303425274e-06
-2.667929039e-06
-1.482475091e-05
-1.293480273e-05
-1.604235331e-05
-1.562477155e-05
-1.570734457e-05
-1.485852499e-05
-1.999071173e-05
-1.470294228e-05
-1.399624489e-05
-2.437003059e-05
-1.515783333e-05
-2.787846279e-05
-1.44823789e-05
-1.488142516e-05
-1.522236926e-05
-1.574636008e-05
-3.117047163e-05
-3.447282143e-05
-3.752094199e-05
-1.436989896e-05
-1.106002946e-05
-9.330747162e-06
-7.865372027e-06
-6.636853414e-06
-5.607153071e-06
-4.743378668e-06
-3.992714483e-06
-3.315162303e-06
-2.668070692e-06
-2.029406687e-06
-1.236026583e-05
-1.452949618e-05
-1.392381182e-05
-1.279734079e-05
-1.247250293e-05
-1.230229009e-05
-1.762895045e-05
-1.330451141e-05
-2.206235877e-05
-1.157488623e-05
-1.220770173e-05
-1.265852006e-05
-2.571192454e-05
-1.382241589e-05
-1.342018913e-05
-2.921334817e-05
-1.277929005e-05
-1.327283917e-05
-1.329527731e-05
-1.375939519e-05
-3.242393359e-05
-3.545343498e-05
-1.048222384e-05
-8.732507013e-06
-7.255351647e-06
-6.015836334e-06
-4.982188329e-06
-4.113986961e-06
-3.362383723e-06
-2.680229045e-06
-2.029290044e-06
-1.385909172e-06
-1.179954597e-05
-1.257405529e-05
-1.209557468e-05
-1.146443628e-05
-1.099920246e-05
-1.087214332e-05
-1.005114245e-05
-1.528090252e-05
-9.873390809e-06
-9.094461348e-06
-1.971463826e-05
-1.035053538e-05
-2.342234438e-05
-9.750091522e-06
-1.021073422e-05
-1.05526924e-05
-1.112258906e-05
-2.7051301e-05
-1.227210578e-05
-1.178966068e-05
-3.046059464e-05
-1.090586647e-05
-1.136563424e-05
-3.345374353e-05
-9.889914509e-06
-8.128931768e-06
-6.637679689e-06
-5.393923402e-06
-4.355595138e-06
-3.48352205e-06
-2.727164201e-06
-2.040446816e-06
-1.385337214e-06
-7.351584372e-07
-1.120921388e-05
-1.06307516e-05
-9.918446267e-06
-9.347855666e-06
-7.84603435e-06
-7.575622476e-06
-7.387063306e-06
-1.293684727e-05
-8.436133612e-06
-1.739919935e-05
-6.608088825e-06
-7.158678272e-06
-7.710908903e-06
-2.109647176e-05
-8.962999345e-06
-8.530293599e-06
-2.479316936e-05
-8.06890057e-06
-8.675483514e-06
-8.531199455e-06
-9.0373278e-06
-2.831058555e-05
-1.025036454e-05
-9.781186236e-06
-3.160897177e-05
-9.433997548e-06
-1.002340287e-05
-9.294989468e-06
-7.513978744e-06
-6.016478892e-06
-4.767143309e-06
-3.726571322e-06
-2.84987027e-06
-2.088042493e-06
-1.396899961e-06
-7.357195955e-07
-7.911131661e-08
-7.816652214e-06
-7.301574442e-06
-6.404945907e-06
-5.932764907e-06
-5.907149443e-06
-5.061048341e-06
-1.055377652e-05
-4.824357347e-06
-4.03759077e-06
-1.512543622e-05
-5.323378446e-06
-1.88094873e-05
-4.707605513e-06
-5.18816114e-06
-5.434311788e-06
-6.079093509e-06
-2.249925819e-05
-7.37782193e-06
-6.789244708e-06
-2.609704643e-05
-6.031003068e-06
-6.553874755e-06
-6.984771517e-06
-7.594867384e-06
-2.948375732e-05
-8.818690731e-06
-8.219830306e-06
-8.079674444e-06
-8.686468391e-06
-6.899103028e-06
-5.394174877e-06
-4.140922101e-06
-3.094253316e-06
-2.210942057e-06
-1.444206191e-06
-7.469200227e-07
-7.906270838e-08
5.810744028e-07
-6.345933798e-06
-5.722723017e-06
-4.761035143e-06
-4.2217398e-06
-2.75079492e-06
-8.131656614e-06
-2.277075282e-06
-3.351720352e-06
-1.28344127e-05
-1.400141286e-06
-2.12164241e-06
-2.587699328e-06
-1.656923268e-05
-3.914110493e-06
-3.390920938e-06
-2.022563785e-05
-2.969065235e-06
-3.496920044e-06
-3.421446991e-06
-3.988603112e-06
-2.384156687e-05
-5.26180429e-06
-4.754789643e-06
-2.729813059e-05
-4.444145816e-06
-5.074280125e-06
-5.60473336e-06
-6.22855805e-06
-7.465052477e-06
-6.851479611e-06
-6.277788998e-06
-4.768722192e-06
-3.508269401e-06
-2.455656386e-06
-1.566025276e-06
-7.945825473e-07
-9.140372725e-08
5.80128301e-07
1.243427278e-06
-4.967513178e-06
-4.330807315e-06
-2.713066351e-06
-2.150118462e-06
-1.28275849e-06
-7.868153489e-07
-1.051741401e-05
-9.694554137e-08
-1.432868885e-05
5.356796464e-07
5.055275665e-08
-3.793543044e-07
-1.027036092e-06
-1.800950304e-05
-2.297304718e-06
-1.717214673e-06
-2.157704876e-05
-8.601892887e-07
-1.392503009e-06
-1.865007562e-06
-2.503660198e-06
-2.507012323e-05
-3.792623374e-06
-3.160226242e-06
-3.04133323e-06
-3.683880323e-06
-4.402072136e-06
-5.03174715e-06
-5.658870123e-06
-4.139375505e-06
-2.872051709e-06
-1.81047858e-06
-9.167329722e-07
-1.388975335e-07
5.677639479e-07
1.243153974e-06
1.909943876e-06
-3.76213211e-06
-3.118536824e-06
-1.200191264e-06
-5.549064213e-07
3.794704355e-07
1.014525196e-06
-1.20651257e-05
1.372537554e-06
1.89266018e-06
-1.584029633e-05
2.362097121e-06
1.724665935e-06
1.775440637e-06
1.211482754e-06
-1.939343383e-05
-1.144718453e-07
4.383475698e-07
-2.281004163e-05
7.61740921e-07
1.128630771e-07
-4.400794751e-07
-1.09299549e-06
-2.392232773e-06
-1.74719878e-06
-1.819334102e-06
-2.468950242e-06
-3.505639597e-06
-2.228428457e-06
-1.160999432e-06
-2.604868143e-07
5.216043064e-07
1.230949238e-06
1.910113042e-06
2.580772161e-06
-2.862890597e-06
-2.216814437e-06
2.230306677e-07
8.822364634e-07
2.614343202e-06
3.164329428e-06
-1.363414412e-05
3.146767085e-06
3.815660875e-06
-1.728922689e-05
4.526838438e-06
3.942104286e-06
3.461910865e-06
2.791739689e-06
-2.063174907e-05
1.438872687e-06
2.101343853e-06
2.210523007e-06
1.548257842e-06
8.042652553e-07
1.439360062e-07
-1.16674255e-06
-5.147426805e-07
-9.103395655e-07
-1.563937076e-06
-1.579183618e-06
-5.056635359e-07
4.002095579e-07
1.184995881e-06
1.89823777e-06
2.581276021e-06
3.256380296e-06
1.471849714e-06
2.139001936e-06
4.154218914e-06
4.828236342e-06
-1.517925557e-05
5.382270956e-06
5.9776944e-06
-1.858444557e-05
6.217013379e-06
5.529153441e-06
4.933198852e-06
4.249284302e-06
2.885329195e-06
3.561181074e-06
3.479146017e-06
2.809236776e-06
1.734428679e-06
1.067782023e-06
-2.536034174e-07
4.046494837e-07
-2.684221272e-07
-9.257787497e-07
1.532539784e-07
1.063094828e-06
1.851519301e-06
2.570190873e-06
3.256955779e-06
3.936728717e-06
2.406299927e-06
3.078896953e-06
5.623787729e-06
6.311825928e-06
-1.653881009e-05
6.937878879e-06
7.648653991e-06
7.717109838e-06
7.012877631e-06
6.223530363e-06
5.533351668e-06
4.158035608e-06
4.841852387e-06
4.428967259e-06
3.753187912e-06
2.391275984e-06
1.720413593e-06
3.909374868e-07
1.053411893e-06
8.150673239e-07
1.728746611e-06
2.522722298e-06
3.245650078e-06
3.93673281e-06
4.618844287e-06
3.066947102e-06
3.742830131e-06
6.918206509e-06
7.613697562e-06
8.43939597e-06
9.16731733e-06
9.034632058e-06
8.320808774e-06
7.191671102e-06
6.496805781e-06
5.113533916e-06
5.801913176e-06
5.101331226e-06
4.420376172e-06
2.822695933e-06
2.149198281e-06
1.479557909e-06
2.399249297e-06
3.198654667e-06
3.92575339e-06
4.618501407e-06
5.30406669e-06
3.500795174e-06
4.178959898e-06
7.890586858e-06
8.592752238e-06
9.763332855e-06
1.050088576e-05
1.00256766e-05
9.304969353e-06
7.877022654e-06
7.178441138e-06
5.789291208e-06
6.481843684e-06
5.543284715e-06
4.859150067e-06
3.074395636e-06
3.87825412e-06
4.606630682e-06
5.303742e-06
5.992591468e-06
3.753894362e-06
4.433750746e-06
8.580035683e-06
9.287266948e-06
1.075968339e-05
1.150407661e-05
1.072974737e-05
1.000433258e-05
8.328506738e-06
7.627510513e-06
6.23444339e-06
6.928765742e-06
5.802487067e-06
5.116079592e-06
4.559062745e-06
5.291488378e-06
5.991901617e-06
6.684546861e-06
9.034291907e-06
9.745309399e-06
1.146805062e-05
1.221724779e-05
1.119435547e-05
1.046561829e-05
8.593049643e-06
7.890949746e-06
6.494870831e-06
7.190913948e-06
5.929896361e-06
5.242609404e-06
5.979398793e-06
6.684335858e-06
7.380103398e-06
9.300827514e-06
1.001404326e-05
1.193548815e-05
1.268842698e-05
1.14667564e-05
1.073637759e-05
8.724338841e-06
8.021215763e-06
6.62292905e-06
7.319941687e-06
6.672165e-06
7.380295756e-06
8.081336091e-06
9.432867046e-06
1.014735244e-05
1.221014827e-05
1.296470055e-05
1.160194915e-05
1.087042438e-05
8.774756679e-06
8.071404409e-06
7.369374998e-06
8.082060049e-06
8.786102626e-06
9.484216207e-06
1.01986152e-05
1.234600768e-05
1.310158859e-05
1.16529518e-05
1.09216744e-05
8.786650142e-06
9.495674931e-06
9.496184248e-06
1.021077242e-05
1.239871108e-05
1.315339523e-05
1.166347829e-05
1.093298124e-05
1.020980199e-05
1.241056543e-05
1.31647439e-05
1.16617548e-05
1.092979437e-05
1.240720485e-05
1.316308226e-05
1.393084676e-05
1.47110386e-05
1.393292223e-05
1.471299493e-05
1.550331217e-05
1.392085505e-05
1.469890867e-05
1.550486559e-05
1.63079967e-05
1.386800795e-05
1.464548313e-05
1.549183435e-05
1.631148007e-05
1.71289048e-05
1.373150735e-05
1.450906166e-05
1.543848703e-05
1.629809412e-05
1.713152778e-05
1.796523065e-05
1.345385772e-05
1.422897276e-05
1.529936708e-05
1.624459219e-05
1.711887307e-05
1.796688775e-05
1.881698518e-05
1.298011466e-05
1.375252032e-05
1.501874158e-05
1.610495383e-05
1.706470175e-05
1.795450407e-05
1.881801836e-05
1.968543984e-05
1.226208587e-05
1.302971941e-05
1.453909317e-05
1.582022014e-05
1.692352635e-05
1.790035822e-05
1.88064223e-05
1.968688048e-05
2.057262463e-05
1.125273229e-05
1.201393206e-05
1.381282345e-05
1.533822251e-05
1.663832154e-05
1.775846249e-05
1.875131056e-05
1.967506068e-05
2.057374877e-05
2.147822488e-05
9.912156202e-06
1.066358527e-05
1.279108801e-05
1.460605199e-05
1.615020665e-05
1.747007263e-05
1.860886732e-05
1.962122224e-05
2.056442099e-05
2.148089516e-05
2.240758113e-05
8.392098607e-06
9.126408258e-06
1.14341774e-05
1.357932888e-05
1.541604433e-05
1.698101187e-05
1.83199154e-05
1.947665987e-05
2.050794501e-05
2.14698448e-05
2.24083451e-05
2.335656245e-05
6.79524328e-06
9.893537026e-06
7.353402907e-06
1.221104958e-05
1.438326581e-05
1.623977369e-05
1.782601248e-05
1.91856725e-05
2.036380465e-05
2.141611731e-05
2.239704918e-05
2.335619865e-05
2.43250106e-05
4.494619589e-06
1.065303331e-05
8.309199984e-06
5.153717211e-06
1.300980057e-05
1.520045407e-05
1.708239506e-05
1.868920663e-05
2.007140392e-05
2.12709092e-05
2.23432362e-05
2.334362398e-05
2.432676047e-05
2.531617611e-05
2.755982223e-06
1.145017723e-05
8.881322174e-06
5.928923201e-06
3.242239927e-06
1.38155292e-05
1.603657438e-05
1.793887714e-05
1.957225686e-05
2.097561446e-05
2.219802627e-05
2.328880328e-05
2.431453322e-05
2.531644168e-05
2.632678297e-05
1.285185022e-06
1.223536037e-05
9.779825632e-06
6.62665434e-06
4.223318228e-06
1.464147863e-05
1.688359953e-05
1.881729804e-05
2.047393718e-05
2.190189298e-05
2.314215999e-05
2.42583792e-05
2.530562961e-05
2.632930227e-05
2.735641283e-05
2.673315521e-06
1.305931801e-05
1.045865611e-05
7.290188023e-06
4.612479188e-06
1.547792272e-05
1.77561451e-05
1.971292295e-05
2.139663593e-05
2.284502625e-05
2.411056266e-05
2.524833326e-05
2.631622192e-05
2.735744783e-05
2.84053076e-05
-7.027282436e-07
4.037902727e-06
1.38721698e-05
1.141062694e-05
8.177898053e-06
5.521430921e-06
1.633963439e-05
1.864208389e-05
2.063285865e-05
2.233901796e-05
2.381232844e-05
2.510079139e-05
2.626006244e-05
2.734542431e-05
2.840606612e-05
2.947126268e-05
-2.468327693e-06
3.996663054e-07
5.548627087e-06
6.139544439e-06
1.473118573e-05
1.209807851e-05
9.031322406e-06
1.721378248e-05
1.955522748e-05
2.157076415e-05
2.330512325e-05
2.480302464e-05
2.61136156e-05
2.729001426e-05
2.839455556e-05
2.947173925e-05
3.05568683e-05
-2.985542835e-08
-5.594958566e-06
1.883616733e-06
6.998558092e-06
7.2002249e-06
7.757654203e-06
1.558105942e-05
1.307732691e-05
9.843646694e-06
1.811664515e-05
2.048584975e-05
2.253472303e-05
2.429460619e-05
2.581668559e-05
2.714426773e-05
2.833879444e-05
2.945948654e-05
3.055751949e-05
3.165994349e-05
-3.339008344e-06
3.028845867e-06
2.605658665e-06
-8.037193766e-06
8.535578672e-06
9.238259736e-06
8.713131137e-06
1.647526005e-05
1.373893247e-05
1.065691959e-05
1.903224802e-05
2.14443171e-05
2.352137381e-05
2.530875645e-05
2.684827632e-05
2.819535803e-05
2.940594459e-05
3.054623448e-05
3.166035458e-05
3.278311488e-05
-5.798436632e-06
-8.723749261e-07
4.661160347e-06
5.88615876e-06
5.504053661e-06
-9.639557902e-06
1.026558311e-05
1.084180622e-05
1.011595759e-05
1.139441156e-05
1.736394915e-05
1.477582373e-05
1.998055086e-05
2.242288974e-05
2.453263551e-05
2.633860822e-05
2.789781865e-05
2.926021989e-05
3.049176848e-05
3.164881491e-05
3.278393706e-05
3.392862709e-05
-7.381875548e-06
-3.35501727e-06
1.846336431e-06
7.649065083e-06
8.695407814e-06
8.988249647e-06
-1.127950691e-05
1.227085522e-05
1.306427021e-05
1.189841714e-05
1.251185313e-05
1.177110607e-05
1.54788595e-05
1.8301007e-05
2.094269621e-05
2.342795597e-05
2.555825813e-05
2.738712647e-05
2.896336628e-05
3.034638576e-05
3.159350672e-05
3.277233554e-05
3.392964936e-05
3.510415263e-05
-4.98810823e-06
-9.088092156e-06
-7.766044519e-07
4.819325568e-06
1.093021183e-05
1.223770596e-05
1.24117787e-05
1.346240333e-05
-1.292710567e-05
1.39592712e-05
1.474925466e-05
1.356821485e-05
1.422429523e-05
1.655233245e-05
1.9230818e-05
2.193540422e-05
2.444330676e-05
2.660220889e-05
2.84480775e-05
3.004694736e-05
3.144752554e-05
3.27180569e-05
3.391898645e-05
3.510492388e-05
3.631074651e-05
-2.644810593e-06
-6.73366867e-06
-1.081901337e-05
1.839615834e-06
8.096224519e-06
1.526308915e-05
1.621065167e-05
1.456462087e-05
1.620249895e-05
1.717498526e-05
1.605259604e-05
1.533153227e-05
-1.439707194e-05
1.56165388e-05
1.729014366e-05
1.647299723e-05
2.021166256e-05
2.293383477e-05
2.547909753e-05
2.765536192e-05
2.952709474e-05
3.114602077e-05
3.257104618e-05
3.386503158e-05
3.509475209e-05
3.631161599e-05
3.755160287e-05
-3.184540276e-07
-4.298204658e-06
-8.51985169e-06
-1.236737262e-05
4.854371127e-06
1.173064175e-05
1.715925828e-05
1.786898429e-05
2.11909246e-05
1.860937846e-05
1.913380038e-05
2.064633554e-05
2.04647622e-05
1.990196324e-05
1.916762267e-05
1.837718082e-05
1.74861143e-05
1.834456452e-05
1.914824315e-05
2.11783572e-05
2.395576666e-05
2.652055809e-05
2.872690857e-05
3.062010364e-05
3.226577974e-05
3.371580533e-05
3.503979678e-05
3.630044375e-05
3.755201396e-05
3.883124373e-05
-1.933783096e-06
2.321442253e-06
-6.098169251e-06
-1.0105603e-05
8.152319424e-06
1.578949559e-05
1.936038825e-05
2.020807733e-05
2.412901813e-05
2.319049963e-05
2.339154162e-05
2.116133692e-05
2.186547863e-05
2.543797746e-05
2.528547157e-05
2.320298154e-05
2.577060877e-05
2.235689135e-05
2.140994911e-05
2.113487426e-05
2.028389463e-05
2.218960071e-05
2.49777604e-05
2.757983202e-05
2.980929639e-05
3.173415826e-05
3.340711191e-05
3.488893708e-05
3.624432793e-05
3.754083082e-05
3.883182944e-05
4.015923332e-05
7.459676681e-07
-3.62028436e-06
5.380138646e-06
-7.685432138e-06
1.185377005e-05
2.011470133e-05
2.225446406e-05
2.304022564e-05
2.66613315e-05
2.550473801e-05
2.551078433e-05
2.643260632e-05
2.343086089e-05
2.430675704e-05
2.823430805e-05
3.064175689e-05
3.044224104e-05
3.094889325e-05
2.831226811e-05
2.883855814e-05
2.783912714e-05
2.51603833e-05
2.434122507e-05
2.317927465e-05
2.602244422e-05
2.864800808e-05
3.09138959e-05
3.286842912e-05
3.457537241e-05
3.609038322e-05
3.74834126e-05
3.882075544e-05
4.016019375e-05
4.154439011e-05
3.683969226e-06
-9.984676126e-07
-5.184234396e-06
8.784933016e-06
1.585239261e-05
2.490234328e-05
2.421479076e-05
2.522928116e-05
2.96366743e-05
2.805522672e-05
2.859458073e-05
2.904367648e-05
2.644691995e-05
2.724717706e-05
3.373856816e-05
3.683999967e-05
3.622264194e-05
3.36767298e-05
3.669494254e-05
3.424604438e-05
3.311714681e-05
3.044295954e-05
3.141610068e-05
3.140954868e-05
3.036201633e-05
2.734137342e-05
2.629315168e-05
2.707004751e-05
2.97392362e-05
3.203711822e-05
3.403118899e-05
3.577286407e-05
3.73278308e-05
3.876192932e-05
4.014870137e-05
4.154384442e-05
4.299121065e-05
6.972669325e-06
1.892557179e-06
-2.543655455e-06
1.253494065e-05
2.027790833e-05
3.019692303e-05
3.191194992e-05
3.102971459e-05
3.073584594e-05
3.20905383e-05
2.844859409e-05
2.955175842e-05
3.613656372e-05
3.727352305e-05
4.047132461e-05
4.35355505e-05
4.319069922e-05
3.980200927e-05
4.04106504e-05
3.92311922e-05
3.714217382e-05
3.552980343e-05
3.280583769e-05
3.400766582e-05
3.464065594e-05
3.351031773e-05
2.922836575e-05
2.814471736e-05
3.084631317e-05
3.318913514e-05
3.521939288e-05
3.700412344e-05
3.860250945e-05
4.008889664e-05
4.153287591e-05
4.299153079e-05
4.450595588e-05
1.049587627e-05
5.057752333e-06
3.297971034e-07
1.664066258e-05
2.524930642e-05
3.386698518e-05
3.31626652e-05
3.266062049e-05
3.441028821e-05
3.034733163e-05
3.147878306e-05
3.895612099e-05
4.059564526e-05
4.650173651e-05
5.035004506e-05
4.753954272e-05
4.622399501e-05
4.261796857e-05
4.399483078e-05
4.402441846e-05
4.233633081e-05
4.056932448e-05
3.915413254e-05
3.624658711e-05
3.740865941e-05
3.712609032e-05
3.576325616e-05
3.198243576e-05
3.436363113e-05
3.644152457e-05
3.827271212e-05
3.992612619e-05
4.147043364e-05
4.297825944e-05
4.450471533e-05
4.60953197e-05
1.438483014e-05
8.344340131e-06
3.406640644e-06
2.132234658e-05
3.555662261e-05
3.511801333e-05
3.433204984e-05
3.641019794e-05
3.313882189e-05
4.251466817e-05
4.398947931e-05
4.971048475e-05
5.102945215e-05
5.520781633e-05
5.321839853e-05
5.150473226e-05
4.978593279e-05
4.59547955e-05
4.780760719e-05
4.753217581e-05
4.601130058e-05
4.327988063e-05
4.165558494e-05
3.859162098e-05
4.006927338e-05
3.919044684e-05
3.777493839e-05
3.55739503e-05
3.769953037e-05
3.958931848e-05
4.130369416e-05
4.291530058e-05
4.449172047e-05
4.609359166e-05
4.776218339e-05
1.887180952e-05
1.196017092e-05
6.512004347e-06
3.681792077e-05
3.682993338e-05
3.814946831e-05
4.502657976e-05
4.676221943e-05
5.353152665e-05
5.535320452e-05
5.819310536e-05
5.90230884e-05
5.744631926e-05
5.524369044e-05
5.362828233e-05
4.975907359e-05
5.138156484e-05
5.051034532e-05
4.864680886e-05
4.551733946e-05
4.384718704e-05
4.068361886e-05
4.221664858e-05
4.098725185e-05
3.953895794e-05
3.900622687e-05
4.096044722e-05
4.274434832e-05
4.44256475e-05
4.607858136e-05
4.77594549e-05
4.951301526e-05
1.622532727e-05
9.923901416e-06
3.811008355e-05
3.945178833e-05
4.728570639e-05
4.911546421e-05
5.752646393e-05
5.919654723e-05
6.15356912e-05
6.33782256e-05
6.158859469e-05
5.852328468e-05
5.652487744e-05
5.250516188e-05
5.446756404e-05
5.299955956e-05
5.102581781e-05
4.747055937e-05
4.574955165e-05
4.250364509e-05
4.409157555e-05
4.232658466e-05
4.08598753e-05
4.036473911e-05
4.239359259e-05
4.425112274e-05
4.601023829e-05
4.774179615e-05
4.950794391e-05
5.135230458e-05
1.397737833e-05
4.928071212e-05
5.116358443e-05
6.061550084e-05
6.257923087e-05
6.546056829e-05
6.646606198e-05
6.455031689e-05
6.139111792e-05
5.925798541e-05
5.505728041e-05
5.714084182e-05
5.519622573e-05
5.314135342e-05
4.89337508e-05
4.717417323e-05
4.386925502e-05
4.548082507e-05
4.327663191e-05
4.178797462e-05
4.389429887e-05
4.583078407e-05
4.76697569e-05
4.948779679e-05
5.134522144e-05
5.329293708e-05
5.078199683e-05
5.27176926e-05
6.35539327e-05
6.560157635e-05
6.841713912e-05
6.903186295e-05
6.742379628e-05
6.391937495e-05
6.172510621e-05
5.733866419e-05
5.95215497e-05
5.68690557e-05
5.474827412e-05
4.99631642e-05
4.817727677e-05
4.483192606e-05
4.646809975e-05
4.546637501e-05
4.748513311e-05
4.941196676e-05
5.132298611e-05
5.32852755e-05
5.534341835e-05
5.184417387e-05
5.381638766e-05
6.616400788e-05
6.824910088e-05
7.072234439e-05
7.025810191e-05
7.136399654e-05
6.994279101e-05
6.589715485e-05
6.363701686e-05
5.908343519e-05
6.135343574e-05
5.806206173e-05
5.589138891e-05
5.0642313e-05
4.883547808e-05
4.711075599e-05
4.921987784e-05
5.124121162e-05
5.325910388e-05
5.533099466e-05
5.750616765e-05
5.254402276e-05
5.45470939e-05
6.820637645e-05
7.03679616e-05
7.293700764e-05
7.237144018e-05
7.317242853e-05
7.192855264e-05
6.734026101e-05
6.503238546e-05
6.033362297e-05
6.267764547e-05
5.886235886e-05
5.665355275e-05
5.104026422e-05
5.317070463e-05
5.530008639e-05
5.74898695e-05
5.978914487e-05
5.295917072e-05
5.497990787e-05
6.97253563e-05
7.198120875e-05
7.471971185e-05
7.410845865e-05
7.448710676e-05
7.340586308e-05
6.834196392e-05
6.60000951e-05
6.117827434e-05
6.358135579e-05
5.934693036e-05
5.711007543e-05
5.52036654e-05
5.745184899e-05
5.976570901e-05
6.219425268e-05
7.078894123e-05
7.315253606e-05
7.604023995e-05
7.537595957e-05
7.538367936e-05
7.44467543e-05
6.898341235e-05
6.661567022e-05
6.169497647e-05
6.414303061e-05
5.960313138e-05
5.734747901e-05
5.971927749e-05
6.216390466e-05
6.472210225e-05
7.147952419e-05
7.395103603e-05
7.69546532e-05
7.624128921e-05
7.594455383e-05
7.51300613e-05
6.935798592e-05
6.696843775e-05
6.19740822e-05
6.445303006e-05
6.210552237e-05
6.467888306e-05
6.728395965e-05
7.189161988e-05
7.446154632e-05
7.754554099e-05
7.678374095e-05
7.625918079e-05
7.553852629e-05
6.955966819e-05
6.715190102e-05
6.460536679e-05
6.724754348e-05
6.973631389e-05
7.212875062e-05
7.477562758e-05
7.790392556e-05
7.709895726e-05
7.641624688e-05
7.576106873e-05
6.96716379e-05
7.243284199e-05
7.227663446e-05
7.499192725e-05
7.810087845e-05
7.726298645e-05
7.648688188e-05
7.587597065e-05
7.495391765e-05
7.821175677e-05
7.735057443e-05
7.652451313e-05
7.597485092e-05
7.823527267e-05
7.740056026e-05
1.896793401e-05
2.468616185e-05
2.145336839e-05
2.711276829e-05
3.018085954e-05
2.430041059e-05
2.920982115e-05
3.193679368e-05
3.648410711e-05
2.627273352e-05
3.113083949e-05
3.448699135e-05
4.050863936e-05
4.695686948e-05
3.040255979e-05
3.534435018e-05
3.845773608e-05
4.419145262e-05
4.614040517e-05
4.744606485e-05
5.426591088e-05
5.062449054e-05
5.30315192e-05
3.606767859e-05
4.34172689e-05
4.410457041e-05
4.409076791e-05
4.587198418e-05
4.837117012e-05
5.108833284e-05
4.951292067e-05
5.306735329e-05
5.655852874e-05
6.040879452e-05
5.805772162e-05
4.076749246e-05
3.794939403e-05
4.553747931e-05
4.874420847e-05
4.624672511e-05
4.92047875e-05
5.086628516e-05
4.94998676e-05
4.864157017e-05
5.124464224e-05
5.367772974e-05
5.767482071e-05
5.479408355e-05
5.924277139e-05
6.305506395e-05
6.784463039e-05
4.522628296e-05
4.099330545e-05
4.96033972e-05
5.399155634e-05
5.384039832e-05
5.552309449e-05
5.652320033e-05
5.848988803e-05
5.470218457e-05
5.754036829e-05
6.135061267e-05
6.349683827e-05
6.119981845e-05
6.137569289e-05
6.437936827e-05
6.243732059e-05
6.73770046e-05
6.940633466e-05
6.656906771e-05
7.336740964e-05
7.18543597e-05
7.185014692e-05
5.095479355e-05
4.702865408e-05
5.550670539e-05
5.992680235e-05
5.673943087e-05
5.880475146e-05
5.980108836e-05
5.706401862e-05
6.059892621e-05
6.029900396e-05
5.763458466e-05
6.14160017e-05
5.887589214e-05
6.180445052e-05
6.246308476e-05
6.395429955e-05
6.187951658e-05
5.791318472e-05
5.955486995e-05
6.187403051e-05
6.298482185e-05
6.05450623e-05
6.553094136e-05
6.713663606e-05
6.450045476e-05
6.78796423e-05
6.532830594e-05
6.535102148e-05
6.6937253e-05
6.910860975e-05
7.171936159e-05
7.411673141e-05
7.774178812e-05
7.654273941e-05
7.705322059e-05
5.547443652e-05
5.394197433e-05
5.448082447e-05
5.871826215e-05
6.089137605e-05
6.070609743e-05
6.318725355e-05
6.417261466e-05
6.169001426e-05
6.521599425e-05
6.356339873e-05
6.371035124e-05
6.43041858e-05
6.476973795e-05
6.622753426e-05
6.616858445e-05
6.77407661e-05
6.870735524e-05
6.567667151e-05
6.469634536e-05
6.64604886e-05
6.731163012e-05
6.938813021e-05
6.962265616e-05
7.065607497e-05
7.274551899e-05
7.016660675e-05
7.012500282e-05
7.107595593e-05
7.417369488e-05
7.600033859e-05
7.908088446e-05
8.189934306e-05
7.968908903e-05
8.144191088e-05
6.098628728e-05
5.769496056e-05
6.046666022e-05
6.296691572e-05
6.504997873e-05
6.551652768e-05
6.685421249e-05
6.905489863e-05
6.870108336e-05
6.598555774e-05
6.86665735e-05
6.725921412e-05
6.804776058e-05
6.75895426e-05
6.911940727e-05
6.950981333e-05
6.972589472e-05
7.011444541e-05
7.10776294e-05
7.008586545e-05
6.856061373e-05
6.960637256e-05
7.171117613e-05
7.315987023e-05
7.206460577e-05
7.353327237e-05
7.564396947e-05
7.398988964e-05
7.464695955e-05
7.497887418e-05
7.716394612e-05
8.023224655e-05
8.114321099e-05
8.394008182e-05
8.436546341e-05
8.257488662e-05
8.4581181e-05
6.542181654e-05
6.30790164e-05
6.365082663e-05
6.75785559e-05
6.85461273e-05
6.891852536e-05
6.982976629e-05
7.12788169e-05
7.071896835e-05
7.038975309e-05
6.975508586e-05
7.13270274e-05
6.934236444e-05
7.084437675e-05
7.069965068e-05
7.100874063e-05
7.172465121e-05
7.178081432e-05
7.256315439e-05
7.361759344e-05
7.306344196e-05
7.184853894e-05
7.085346442e-05
7.324058242e-05
7.363223995e-05
7.647075108e-05
7.478952466e-05
7.567971625e-05
7.629203174e-05
7.77532041e-05
7.795462443e-05
7.649199688e-05
7.774335972e-05
7.868543616e-05
8.056333172e-05
8.280367183e-05
8.237245493e-05
8.305259689e-05
8.319313929e-05
8.648126095e-05
8.701243496e-05
8.566371253e-05
8.750340203e-05
6.860420399e-05
6.623480294e-05
6.741149264e-05
7.039322372e-05
7.125305274e-05
7.168159209e-05
7.221056876e-05
7.267676119e-05
7.29112071e-05
7.255037781e-05
7.257547259e-05
7.290177746e-05
7.23295816e-05
7.142234972e-05
7.322995953e-05
7.34669884e-05
7.138884393e-05
7.345646736e-05
7.298041601e-05