/*--------------------------------*- C++ -*----------------------------------*\
  =========                 |
  \\      /  F ield         | OpenFOAM: The Open Source CFD Toolbox
   \\    /   O peration     | Website:  https://openfoam.org
    \\  /    A nd           | Version:  8
     \\/     M anipulation  |
\*---------------------------------------------------------------------------*/






FoamFile
{
    version     2.0;
    format      ascii;
    class       volVectorField;
    location    "0";
    object      UDDES;
}
// * * * * * * * * * * * * * * * * * * * * * * * * * * * * * * * * * * * * * //

dimensions      [0 1 -1 0 0 0 0];


internalField   nonuniform List<vector> 
9882
(
( -0.0004558893852 4.905145943e-07 4.261141839e-06 )
( -0.000963707047 1.212418169e-06 9.137238521e-06 )
( -0.0004583884729 5.018333695e-07 4.320414064e-06 )
( -0.001682780567 2.951653187e-06 1.624933975e-05 )
( -0.0009687194834 1.23581367e-06 9.393500477e-06 )
( -0.0004609494063 5.061217507e-07 4.629753676e-06 )
( -0.002461122582 5.589170541e-06 2.43959912e-05 )
( -0.001691020327 3.005043254e-06 1.682959191e-05 )
( -0.0009738862864 1.240229267e-06 9.865854736e-06 )
( -0.0004634194192 4.979652886e-07 4.748552328e-06 )
( -0.003265167121 8.947969945e-06 3.450286385e-05 )
( -0.00247216085 5.662489912e-06 2.554336606e-05 )
( -0.001699290355 3.019465566e-06 1.765699199e-05 )
( -0.0009788125753 1.225137453e-06 1.03109578e-05 )
( -0.0004657315731 4.790128969e-07 4.918088962e-06 )
( -0.004050742835 1.331435033e-05 4.50496409e-05 )
( -0.003278449643 8.986163266e-06 3.581817873e-05 )
( -0.002483083867 5.671359759e-06 2.664697604e-05 )
( -0.001707365969 2.976524229e-06 1.834008071e-05 )
( -0.0009833757067 1.145811098e-06 1.050309675e-05 )
( -0.0004677580146 4.598224734e-07 5.07237155e-06 )
( -0.004776534624 1.932037412e-05 5.474467616e-05 )
( -0.004065355286 1.323614561e-05 4.717802585e-05 )
( -0.003291109344 8.926946975e-06 3.726402429e-05 )
( -0.002493692096 5.551809863e-06 2.78786556e-05 )
( -0.001714846818 2.766681746e-06 1.876029455e-05 )
( -0.0009876004187 1.079440835e-06 1.090158185e-05 )
( -0.000469731167 4.389505648e-07 5.295573374e-06 )
( -0.005415690131 2.687027882e-05 6.385368761e-05 )
( -0.004791446496 1.900559801e-05 5.739340486e-05 )
( -0.004078933969 1.303475074e-05 4.859870751e-05 )
( -0.003303584876 8.752098438e-06 3.850412031e-05 )
( -0.002503778785 5.204680747e-06 2.848188524e-05 )
( -0.001721793669 2.583812147e-06 1.933394742e-05 )
( -0.0009915221017 1.015022804e-06 1.131907356e-05 )
( -0.0004715037358 4.288343689e-07 5.44866316e-06 )
( -0.005959069356 3.556318188e-05 7.189397002e-05 )
( -0.005430294666 2.612562093e-05 6.690881855e-05 )
( -0.004805241246 1.848650572e-05 5.93117511e-05 )
( -0.004092253279 1.270862595e-05 4.963360698e-05 )
( -0.003315418726 8.217296454e-06 3.939043381e-05 )
( -0.002513328101 4.810659448e-06 2.939788828e-05 )
( -0.001728346338 2.413388756e-06 2.02187075e-05 )
( -0.0009951677639 9.757031876e-07 1.174567115e-05 )
( -0.0004731734807 4.210380098e-07 5.654901997e-06 )
( -0.006408312358 4.495106987e-05 7.832726988e-05 )
( -0.005974530242 3.45035005e-05 7.492164877e-05 )
( -0.005443420261 2.519333793e-05 6.933528493e-05 )
( -0.004818489775 1.807658919e-05 6.061598106e-05 )
( -0.004104970954 1.20528648e-05 5.060296826e-05 )
( -0.003326940117 7.641399861e-06 4.042208457e-05 )
( -0.002522271825 4.487706065e-06 3.042916433e-05 )
( -0.001734439051 2.318624183e-06 2.096707067e-05 )
( -0.0009986116784 9.449250911e-07 1.205668741e-05 )
( -0.0004747208441 4.225535122e-07 5.813663847e-06 )
( -0.006729394663 5.467035226e-05 8.053471538e-05 )
( -0.006423264742 4.443252692e-05 8.03298899e-05 )
( -0.005986233242 3.2937176e-05 7.710904902e-05 )
( -0.005456103943 2.462495831e-05 7.071223808e-05 )
( -0.004831078462 1.727761082e-05 6.177471369e-05 )
( -0.004117514007 1.130772853e-05 5.186816634e-05 )
( -0.003337816335 7.078896942e-06 4.176601215e-05 )
( -0.002530724742 4.252584404e-06 3.158555774e-05 )
( -0.001740279375 2.208456181e-06 2.157436393e-05 )
( -0.001001841505 9.42420229e-07 1.25570441e-05 )
( -0.0004763259203 4.28878252e-07 6.141400718e-06 )
( -0.006743083242 5.542080544e-05 8.201521996e-05 )
( -0.006922536995 6.857402332e-05 7.414162974e-05 )
( -0.006434287876 4.162574987e-05 8.255256398e-05 )
( -0.005997855682 3.243658648e-05 7.889639528e-05 )
( -0.00546776969 2.369550748e-05 7.214827201e-05 )
( -0.004843871575 1.638222602e-05 6.300799578e-05 )
( -0.004129638895 1.047604746e-05 5.329184205e-05 )
( -0.003348351223 6.613106962e-06 4.291149162e-05 )
( -0.002538884524 4.006784366e-06 3.241351078e-05 )
( -0.001745734015 2.184959158e-06 2.219958697e-05 )
( -0.001005078666 9.502128364e-07 1.301034172e-05 )
( -0.0004780044837 4.533885374e-07 6.299930192e-06 )
( -0.006749956869 5.070480984e-05 8.402373351e-05 )
( -0.006930408999 6.612675497e-05 7.69221806e-05 )
( -0.007041276433 7.814368291e-05 6.836368266e-05 )
( -0.006443886086 4.179455937e-05 8.426445129e-05 )
( -0.006007158663 3.107617522e-05 8.05217278e-05 )
( -0.005480154883 2.270491677e-05 7.314959657e-05 )
( -0.004856217653 1.532406895e-05 6.455562107e-05 )
( -0.004141454585 9.764382412e-06 5.454821076e-05 )
( -0.003358378774 6.146055966e-06 4.415429794e-05 )
( -0.002546572359 3.92194579e-06 3.351471241e-05 )
( -0.001751194242 2.208311571e-06 2.319396845e-05 )
( -0.001008493011 9.993840422e-07 1.364621858e-05 )
( -0.0004798137234 4.689807724e-07 6.489292446e-06 )
( -0.006760339718 5.214034172e-05 8.562869334e-05 )
( -0.006938289851 6.40456492e-05 7.730018115e-05 )
( -0.007048477884 7.873283903e-05 6.84390543e-05 )
( -0.00706988899 7.993396139e-05 5.703458737e-05 )
( -0.006450288463 3.921822645e-05 8.633726975e-05 )
( -0.006018691231 3.013385503e-05 8.144755702e-05 )
( -0.005491786636 2.139326716e-05 7.454770093e-05 )
( -0.004868572578 1.434359729e-05 6.576834858e-05 )
( -0.004152731039 9.016261174e-06 5.592564048e-05 )
( -0.003367913654 5.936802609e-06 4.564476694e-05 )
( -0.002554048784 3.929344075e-06 3.47690293e-05 )
( -0.001756727346 2.275549605e-06 2.424485501e-05 )
( -0.001012007007 1.03626428e-06 1.41254186e-05 )
( -0.0004816934234 4.686252453e-07 6.846958968e-06 )
( -0.00676489342 4.724660903e-05 8.765813982e-05 )
( -0.006944008172 6.143778592e-05 7.865997031e-05 )
( -0.007049464621 7.185905997e-05 6.797013339e-05 )
( -0.007069871761 7.620855467e-05 5.610193693e-05 )
( -0.006997614168 7.654303772e-05 4.340921078e-05 )
( -0.006459807046 3.898102295e-05 8.751428686e-05 )
( -0.006029133685 2.842433787e-05 8.279350732e-05 )
( -0.005503771361 2.024480091e-05 7.574471238e-05 )
( -0.004880222492 1.324391178e-05 6.710632442e-05 )
( -0.004163618665 8.57170653e-06 5.795762627e-05 )
( -0.003377131419 5.81794211e-06 4.751462257e-05 )
( -0.002561627189 3.977094366e-06 3.637900591e-05 )
( -0.001762408647 2.341797654e-06 2.530695565e-05 )
( -0.00101563253 1.049492994e-06 1.473256634e-05 )
( -0.0004834614519 4.495402663e-07 7.080721389e-06 )
( -0.006774460431 4.848518074e-05 8.919020911e-05 )
( -0.006950641982 5.87750219e-05 8.109795453e-05 )
( -0.007057377603 7.272827497e-05 6.98566655e-05 )
( -0.007071407977 7.131815073e-05 5.351487926e-05 )
( -0.006725795567 7.008008834e-05 5.652172604e-06 )
( -0.006995546632 6.753038906e-05 3.823012958e-05 )
( -0.006467614323 3.603473306e-05 8.888874436e-05 )
( -0.006040137261 2.727884385e-05 8.398729551e-05 )
( -0.00551484013 1.874711597e-05 7.682292198e-05 )
( -0.004891559016 1.257090298e-05 6.904439215e-05 )
( -0.004173836205 8.31790021e-06 6.014044629e-05 )
( -0.003386010416 5.898235941e-06 4.925445683e-05 )
( -0.002568956465 4.050255484e-06 3.784295041e-05 )
( -0.001768053742 2.346573865e-06 2.652658077e-05 )
( -0.001019119867 9.889782859e-07 1.541013444e-05 )
( -0.0004850292171 4.33388891e-07 7.433795872e-06 )
( -0.006779763382 4.33465284e-05 9.050594963e-05 )
( -0.006956423167 5.633308319e-05 8.245004574e-05 )
( -0.00705915736 6.602959184e-05 7.149958401e-05 )
( -0.007074795663 6.947870133e-05 5.434343257e-05 )
( -0.006453481503 5.839676305e-05 -2.929692528e-05 )
( -0.006719807629 6.188198313e-05 -1.44117439e-06 )
( -0.00699668983 6.070837117e-05 3.649457358e-05 )
( -0.00647756923 3.565421866e-05 9.009490896e-05 )
( -0.006049849093 2.519525515e-05 8.47656629e-05 )
( -0.005526169203 1.76745034e-05 7.867127715e-05 )
( -0.004902265035 1.187903217e-05 7.169022138e-05 )
( -0.004183596 8.225696547e-06 6.231491716e-05 )
( -0.003394433763 5.904522368e-06 5.081714335e-05 )
( -0.002576228231 4.037085546e-06 3.936791472e-05 )
( -0.001773508149 2.227679715e-06 2.742349352e-05 )
( -0.001022207434 9.421931964e-07 1.612601773e-05 )
( -0.0004864767252 4.20624076e-07 7.809079762e-06 )
( -0.006788315251 4.438273027e-05 9.181346104e-05 )
( -0.006963366643 5.431640238e-05 8.398708451e-05 )
( -0.007064625621 6.672739255e-05 7.255391392e-05 )
( -0.007078311872 6.533883425e-05 5.590710498e-05 )
( -0.006426833104 3.774829383e-05 -4.606962466e-05 )
( -0.005878940225 2.905708061e-05 -9.043364844e-05 )
( -0.006708600093 5.177411731e-05 -1.019811771e-05 )
( -0.006993456744 5.308255641e-05 3.513630509e-05 )
( -0.007078553084 6.26018882e-05 5.453660924e-05 )
( -0.006484517828 3.22069136e-05 9.111030522e-05 )
( -0.006060227752 2.38630837e-05 8.636793063e-05 )
( -0.005536320619 1.656928362e-05 8.109399641e-05 )
( -0.004912161268 1.182556662e-05 7.388282393e-05 )
( -0.004192372784 8.243352568e-06 6.396408571e-05 )
( -0.003402668517 5.840938684e-06 5.285551742e-05 )
( -0.002583165187 3.779219242e-06 4.080161671e-05 )
( -0.001778481063 2.088043402e-06 2.860000313e-05 )
( -0.00102504564 8.891740322e-07 1.679608795e-05 )
( -0.0004877155006 4.121691859e-07 8.050345059e-06 )
( -0.006792617496 3.88135486e-05 9.262089588e-05 )
( -0.006967117544 5.13549021e-05 8.492303459e-05 )
( -0.007064745296 6.020378714e-05 7.345818449e-05 )
( -0.00639413856 2.147598934e-05 -4.711192378e-05 )
( -0.006700947881 4.574890409e-05 -1.28278898e-05 )
( -0.005834712647 2.667929948e-06 -0.0001066792393 )
( -0.005281336606 -1.505517412e-05 -0.0001403679053 )
( -0.006991110742 4.681206701e-05 3.501593892e-05 )
( -0.007078585681 5.542907093e-05 5.57705207e-05 )
( -0.007079456933 5.803784006e-05 5.511533527e-05 )
( -0.006493670866 3.152865247e-05 9.248696733e-05 )
( -0.006069159601 2.19659305e-05 8.879868255e-05 )
( -0.005546056665 1.612206688e-05 8.359726053e-05 )
( -0.004920915235 1.144936687e-05 7.583931438e-05 )
( -0.004200906493 7.923296835e-06 6.598157051e-05 )
( -0.003410510952 5.402519946e-06 5.472097109e-05 )
( -0.002589529846 3.50958635e-06 4.233032087e-05 )
( -0.001782998908 1.946188604e-06 2.975955249e-05 )
( -0.001027545892 8.602226558e-07 1.743051871e-05 )
( -0.0004889177508 4.072048796e-07 8.277540474e-06 )
( -0.006800639443 3.951283725e-05 9.379569383e-05 )
( -0.00697337836 4.847990931e-05 8.490265463e-05 )
( -0.007070505526 6.121756451e-05 7.54780267e-05 )
( -0.006687263027 3.77263168e-05 -1.300711483e-05 )
( -0.006678969599 3.346365338e-05 -1.102719034e-05 )
( -0.006354773417 1.183672066e-05 -3.636932524e-05 )
( -0.005780848674 -2.484658762e-05 -0.0001074672982 )
( -0.005215187091 -4.628008173e-05 -0.0001492369047 )
( -0.004780214746 -6.819975533e-05 -0.0001752031967 )
( -0.006988503039 4.144689592e-05 3.547664528e-05 )
( -0.007080964744 5.149420031e-05 5.576191325e-05 )
( -0.007082040422 4.953326425e-05 5.548405898e-05 )
( -0.006500142626 2.805319491e-05 9.453389794e-05 )
( -0.006078146398 2.122229489e-05 9.091578977e-05 )
( -0.005554282106 1.563151636e-05 8.576932305e-05 )
( -0.004929501563 1.093650826e-05 7.819524762e-05 )
( -0.004209053703 7.314215509e-06 6.848525663e-05 )
( -0.003417942673 4.946235094e-06 5.695474829e-05 )
( -0.002595520578 3.245820153e-06 4.408437235e-05 )
( -0.001787139103 1.877964337e-06 3.081379327e-05 )
( -0.001029996085 8.414382933e-07 1.781725223e-05 )
( -0.0004901445936 4.128684168e-07 8.377071026e-06 )
( -0.006804021075 3.407039912e-05 9.536225843e-05 )
( -0.006977172568 4.550571248e-05 8.626034833e-05 )
( -0.007069351152 5.335580499e-05 7.481424836e-05 )
( -0.006662799511 2.885685353e-05 -4.879751032e-06 )
( -0.006313705817 7.479179658e-06 -1.627464553e-05 )
( -0.006654470228 2.646273424e-05 1.644189979e-06 )
( -0.005713636987 -4.340493615e-05 -9.588161629e-05 )
( -0.005137439817 -8.745255764e-05 -0.0001459066261 )
( -0.004691656213 -0.0001026065584 -0.000173594206 )
( -0.004128509201 -0.0001492570882 -0.0001986966963 )
( -0.007085555233 4.371666e-05 5.624335245e-05 )
( -0.007084528916 4.604746937e-05 5.506529487e-05 )
( -0.006985902321 3.719285814e-05 3.801295679e-05 )
( -0.007077311631 5.428068471e-05 7.548823487e-05 )
( -0.006508481223 2.778969611e-05 9.636290633e-05 )
( -0.006085234229 2.028202471e-05 9.301598766e-05 )
( -0.005562548526 1.493240143e-05 8.814354078e-05 )
( -0.004937279504 1.016605529e-05 8.068815077e-05 )
( -0.004216820467 6.672320069e-06 7.108874706e-05 )
( -0.003424723167 4.460558557e-06 5.92317374e-05 )
( -0.002600867301 3.056037713e-06 4.585772331e-05 )
( -0.001791076036 1.823983098e-06 3.193234443e-05 )
( -0.001032446511 8.570085583e-07 1.832838461e-05 )
( -0.0004913804005 4.220206051e-07 8.433178664e-06 )
( -0.006811751518 3.466054477e-05 9.656071052e-05 )
( -0.00698277168 4.298201384e-05 8.61378503e-05 )
( -0.006639850792 2.448608757e-05 1.282722042e-05 )
( -0.006266796961 6.197555194e-06 1.154222809e-05 )
( -0.005638932809 -5.28073142e-05 -7.542162348e-05 )
( -0.006632416509 2.45270694e-05 2.285610753e-05 )
( -0.006983075757 3.344063589e-05 4.245500895e-05 )
( -0.005046883132 -0.0001190146504 -0.0001362264884 )
( -0.004593643826 -0.0001523193932 -0.0001642728021 )
( -0.004015717655 -0.000188488717 -0.000186541467 )
( -0.003332919441 -0.000263959053 -0.0002208079386 )
( -0.007082614116 4.807151345e-05 7.40789983e-05 )
( -0.007084883749 4.127836655e-05 5.640386371e-05 )
( -0.007077432703 4.727653504e-05 7.439115871e-05 )
( -0.007084372453 3.991983613e-05 5.503253851e-05 )
( -0.006513645407 2.497041351e-05 9.826369933e-05 )
( -0.006093011238 1.949219222e-05 9.534411947e-05 )
( -0.005569790024 1.399689245e-05 9.083702753e-05 )
( -0.004945176654 9.506860806e-06 8.357907063e-05 )
( -0.004224173725 6.046727322e-06 7.373889821e-05 )
( -0.003431293881 4.205188361e-06 6.154838775e-05 )
( -0.002606356051 3.011365834e-06 4.75427878e-05 )
( -0.001795179909 1.871201903e-06 3.294375711e-05 )
( -0.001035008812 8.723158658e-07 1.849998262e-05 )
( -0.00049280643 4.454064992e-07 8.538651855e-06 )
( -0.006986110937 3.976190055e-05 8.655885176e-05 )
( -0.006814587861 2.96137132e-05 9.80322875e-05 )
( -0.00698428601 3.194280725e-05 5.031452019e-05 )
( -0.006212269887 1.154911752e-05 4.37380877e-05 )
( -0.006600703113 2.806156772e-05 5.032195622e-05 )
( -0.005557297729 -5.727606549e-05 -4.185993748e-05 )
( -0.006614294369 2.563797898e-05 3.893139728e-05 )
( -0.004947242327 -0.0001360110764 -0.0001180756371 )
( -0.006983378902 3.350010229e-05 6.006442345e-05 )
( -0.007088132203 3.561742778e-05 5.877546937e-05 )
( -0.00708520133 3.689330333e-05 5.523298387e-05 )
( -0.004488271661 -0.0001933849708 -0.0001562457619 )
( -0.003899162635 -0.0002428023581 -0.0001714293758 )
( -0.003200869774 -0.0003097521258 -0.000206027471 )
( -0.002448454034 -0.0003964290372 -0.0002400524972 )
( -0.007083146833 4.240975977e-05 7.550576265e-05 )
( -0.0070858174 4.4358374e-05 7.252475916e-05 )
( -0.006520869676 2.510854574e-05 0.0001001673299 )
( -0.006099027582 1.833587157e-05 9.759303066e-05 )
( -0.005577183794 1.333205182e-05 9.348346794e-05 )
( -0.004952390678 8.716830052e-06 8.630710363e-05 )
( -0.004231192637 5.660271654e-06 7.626617298e-05 )
( -0.003437767737 4.09591803e-06 6.366901653e-05 )
( -0.002612007316 3.09957295e-06 4.920291394e-05 )
( -0.001799570979 1.93258029e-06 3.370954437e-05 )
( -0.001037935726 9.466947972e-07 1.88351496e-05 )
( -0.0004943821114 4.645458489e-07 8.781586075e-06 )
( -0.006990141701 3.830526839e-05 8.722685743e-05 )
( -0.006821462419 3.112992272e-05 9.947737271e-05 )
( -0.007090620231 3.476053826e-05 6.329242024e-05 )
( -0.007092898712 3.486587593e-05 6.552129344e-05 )
( -0.006576341111 3.241515151e-05 6.861524162e-05 )
( -0.006154070608 2.905482688e-05 7.87987301e-05 )
( -0.005473169498 -5.383774987e-05 -5.549865364e-06 )
( -0.006562161725 3.952349653e-05 8.306591189e-05 )
( -0.006972041912 4.265451207e-05 8.4649786e-05 )
( -0.004836777225 -0.0001409541001 -8.49003045e-05 )
( -0.00697878655 3.72680297e-05 7.080024807e-05 )
( -0.004379421007 -0.0002174371766 -0.0001440596243 )
( -0.007094572764 3.728554293e-05 7.413424464e-05 )
( -0.007094795816 3.683875184e-05 7.089391875e-05 )
( -0.007092428859 3.978758832e-05 7.505358371e-05 )
( -0.007086893078 3.759155516e-05 7.351004024e-05 )
( -0.003784253728 -0.0002907113812 -0.0001632808126 )
( -0.003073927248 -0.0003632670268 -0.0001906961843 )
( -0.00230785762 -0.000449827814 -0.0002305484813 )
( -0.006993195973 3.580940393e-05 8.78537976e-05 )
( -0.006524911616 2.244953976e-05 0.0001020966884 )
( -0.006105871405 1.760931082e-05 0.0001000145567 )
( -0.005583805032 1.232804789e-05 9.606603999e-05 )
( -0.004959746264 8.334563972e-06 8.891509788e-05 )
( -0.004238367081 5.550171409e-06 7.878198085e-05 )
( -0.003444648581 4.295576218e-06 6.565316289e-05 )
( -0.002617865102 3.234206815e-06 5.03501542e-05 )
( -0.001804258791 2.088254178e-06 3.433099846e-05 )
( -0.001041064737 9.951996844e-07 1.943285679e-05 )
( -0.0004960499355 4.846398269e-07 9.179066183e-06 )
( -0.006823295727 2.63257607e-05 0.0001008351246 )
( -0.007091653999 3.491422467e-05 7.823212218e-05 )
( -0.007096042857 3.944349737e-05 8.058502135e-05 )
( -0.006965070032 4.958624413e-05 0.0001000797201 )
( -0.006093495525 5.070511543e-05 0.0001118737637 )
( -0.006519115996 6.208018749e-05 0.0001165798603 )
( -0.005388155114 -4.035487655e-05 3.081210889e-05 )
( -0.006535556167 5.206421702e-05 0.0001039032941 )
( -0.004726743326 -0.0001353872067 -4.620602704e-05 )
( -0.006957737729 5.940975461e-05 0.0001174567224 )
( -0.007092126645 4.974050535e-05 9.681526717e-05 )
( -0.007093155757 4.743151294e-05 9.24601336e-05 )
( -0.004255916458 -0.0002246579243 -0.0001180173422 )
( -0.007093519438 4.067458576e-05 8.06402968e-05 )
( -0.007094521541 4.286665353e-05 8.481772238e-05 )
( -0.003671968821 -0.0003224332468 -0.0001573143236 )
( -0.007099226583 4.279456334e-05 8.864418487e-05 )
( -0.007095368113 3.678902794e-05 8.460448589e-05 )
( -0.007000400685 3.21775442e-05 8.903062553e-05 )
( -0.006997636054 3.445297261e-05 8.827161946e-05 )
( -0.002955144737 -0.0004114147741 -0.0001849765686 )
( -0.002176734619 -0.0005004904815 -0.0002169354993 )
( -0.006531206425 2.269153993e-05 0.0001039244453 )
( -0.006111286581 1.630664883e-05 0.0001022834476 )
( -0.005590755027 1.18971675e-05 9.842496365e-05 )
( -0.004966609646 8.068931493e-06 9.139612666e-05 )
( -0.004245845135 5.815454188e-06 8.108000475e-05 )
( -0.003451893805 4.564915798e-06 6.723537081e-05 )
( -0.00262453896 3.539483487e-06 5.141106158e-05 )
( -0.001809655922 2.213348807e-06 3.516220386e-05 )
( -0.001044456381 1.043064458e-06 2.004162889e-05 )
( -0.0004978267243 4.891965091e-07 9.393040273e-06 )
( -0.006829460617 2.830461017e-05 0.0001021158096 )
( -0.007003492676 3.226059198e-05 9.113919805e-05 )
( -0.007006039843 3.050232044e-05 9.218473861e-05 )
( -0.007091553882 5.405393676e-05 0.000106003863 )
( -0.007092123851 5.784646055e-05 0.0001128639997 )
( -0.006494929083 7.518454368e-05 0.000133970243 )
( -0.006030073389 7.512178126e-05 0.0001390766702 )
( -0.005300536752 -2.024360037e-05 6.431817019e-05 )
( -0.006476218347 8.357020124e-05 0.0001449866832 )
( -0.006943673361 8.424313273e-05 0.0001460134517 )
( -0.004617967643 -0.0001224134176 -1.033834815e-05 )
( -0.006949258968 7.201099652e-05 0.0001335976995 )
( -0.004129083361 -0.000216817527 -8.449942834e-05 )
( -0.007089829538 6.915378617e-05 0.0001282334415 )
( -0.007091405801 6.489121733e-05 0.0001227165776 )
( -0.007107010577 5.660862007e-05 0.0001064461248 )
( -0.007103158627 4.910687858e-05 0.0001026586106 )
( -0.00354325329 -0.0003355494991 -0.0001425993978 )
( -0.007098547183 4.115050251e-05 9.283538384e-05 )
( -0.007103889249 4.920163337e-05 9.708153812e-05 )
( -0.002842094284 -0.0004466203391 -0.0001858617616 )
( -0.007013285998 3.336849841e-05 9.712456085e-05 )
( -0.007009948604 3.339281466e-05 9.54014904e-05 )
( -0.002057449427 -0.0005454085767 -0.0002100132406 )
( -0.006534577813 2.004357702e-05 0.0001057866684 )
( -0.006117722951 1.605035322e-05 0.000104343213 )
( -0.005597115494 1.160530064e-05 0.0001006743551 )
( -0.004974415991 8.586075637e-06 9.393853543e-05 )
( -0.004254044965 6.298248536e-06 8.308731049e-05 )
( -0.003459943924 5.064848665e-06 6.862982264e-05 )
( -0.002631589537 3.781320629e-06 5.250448157e-05 )
( -0.001814954681 2.336269063e-06 3.6177109e-05 )
( -0.001047912752 1.058267458e-06 2.064087676e-05 )
( -0.0004995517666 4.999395742e-07 9.747440345e-06 )
( -0.006830793805 2.351539661e-05 0.0001034786328 )
( -0.006836907472 2.622746069e-05 0.0001047450569 )
( -0.007105459925 5.585297549e-05 0.0001124301343 )
( -0.007111587096 6.488272629e-05 0.000118449243 )
( -0.006938439328 9.433378727e-05 0.0001561302051 )
( -0.005959829316 0.0001073400344 0.0001535658521 )
( -0.006431650836 0.000112137066 0.0001660944836 )
( -0.005209657364 -1.242142389e-07 9.221105574e-05 )
( -0.006448976696 9.832795331e-05 0.0001599294337 )
( -0.004507946316 -0.0001057622649 1.947487544e-05 )
( -0.006931180134 0.0001036135654 0.0001657024404 )
( -0.007092338987 9.329894237e-05 0.000154070236 )
( -0.007088803221 8.961514686e-05 0.0001510103757 )
( -0.004002963193 -0.0002036459337 -5.310387496e-05 )
( -0.007089596242 7.72848507e-05 0.0001381119946 )
( -0.007087987382 8.21224894e-05 0.0001439022744 )
( -0.003405034076 -0.0003311874461 -0.0001210519185 )
( -0.007112922147 7.599429227e-05 0.0001301364828 )
( -0.007107566576 6.62806633e-05 0.0001249867346 )
( -0.007030247711 4.619680476e-05 0.0001101287635 )
( -0.007026375271 4.484990859e-05 0.0001075882319 )
( -0.002712958027 -0.0004672857758 -0.0001880070195 )
( -0.007017540745 3.821485006e-05 0.0001014406807 )
( -0.00702194823 3.936358189e-05 0.0001036073663 )
( -0.001950553851 -0.000578135252 -0.0002158536226 )
( -0.006846092641 2.851974205e-05 0.0001087536511 )
( -0.006838593166 2.302172106e-05 0.0001064978132 )
( -0.006540551782 2.072304051e-05 0.0001073511958 )
( -0.006122670136 1.553331458e-05 0.0001062060037 )
( -0.005604194943 1.222034643e-05 0.0001030377316 )
( -0.004982278217 9.16548197e-06 9.622553625e-05 )
( -0.004262978677 7.018851193e-06 8.486187289e-05 )
( -0.003468571231 5.4421389e-06 6.999401376e-05 )
( -0.002638799371 4.035969141e-06 5.3637159e-05 )
( -0.00182060455 2.412795311e-06 3.692727478e-05 )
( -0.001051322324 1.109444838e-06 2.116786709e-05 )
( -0.0005013655173 5.101002216e-07 1.002349836e-05 )
( -0.007035141811 5.112140207e-05 0.0001149980744 )
( -0.007040538825 5.388912905e-05 0.0001183922723 )
( -0.007094861008 9.94863949e-05 0.0001593717461 )
( -0.007095143665 0.0001020110794 0.000161949356 )
( -0.006400475278 0.0001328081125 0.0001719553402 )
( -0.005880699493 0.0001432776044 0.0001615289802 )
( -0.005109880585 2.236264481e-05 0.0001064196331 )
( -0.006386182737 0.000150405438 0.0001753862307 )
( -0.006921408232 0.0001323351898 0.0001790362585 )
( -0.004393288866 -9.17571524e-05 4.201187039e-05 )
( -0.006926589645 0.0001164398418 0.0001743056346 )
( -0.003876362229 -0.0001883592631 -2.73295791e-05 )
( -0.007094131317 0.0001109879449 0.0001690335339 )
( -0.007092821412 0.0001067998237 0.0001658153633 )
( -0.007127615623 9.770655015e-05 0.0001540151134 )
( -0.007118643727 8.88170689e-05 0.000150796448 )
( -0.003262168262 -0.0003177467152 -9.711825987e-05 )
( -0.007112664636 7.803182962e-05 0.0001388093078 )
( -0.00711977575 8.801765216e-05 0.0001457961043 )
( -0.002571775578 -0.0004710476496 -0.0001814220159 )
( -0.007049166132 6.431126531e-05 0.0001277298725 )
( -0.007044869475 6.118074816e-05 0.0001238384575 )
( -0.006869918201 3.926670252e-05 0.000117827316 )
( -0.006860881578 3.290202585e-05 0.0001156511789 )
( -0.001822714927 -0.0006025860202 -0.0002278102766 )
( -0.006849003956 2.74715494e-05 0.0001112366153 )
( -0.006857161876 3.39222679e-05 0.0001134087361 )
( -0.006550789811 2.219103953e-05 0.0001110689045 )
( -0.006544048432 1.946490011e-05 0.0001091515442 )
( -0.006129511632 1.681811591e-05 0.0001083442694 )
( -0.005611793138 1.319174953e-05 0.0001053329615 )
( -0.004991560243 1.021102253e-05 9.821348067e-05 )
( -0.004272453021 7.522347914e-06 8.635625272e-05 )
( -0.003477304243 5.814938049e-06 7.130816812e-05 )
( -0.002646477427 4.177023584e-06 5.473740021e-05 )
( -0.001826402964 2.507386171e-06 3.786016896e-05 )
( -0.00105500489 1.123448214e-06 2.169125219e-05 )
( -0.000503250747 5.209885785e-07 1.020644959e-05 )
( -0.006874174811 3.860115976e-05 0.0001207398163 )
( -0.006884224247 4.65085941e-05 0.000123809732 )
( -0.007128087804 9.671632142e-05 0.0001570378081 )
( -0.007134603336 0.0001046232574 0.0001587752049 )
( -0.00691796001 0.0001511503215 0.0001811502734 )
( -0.00499126967 4.563822949e-05 0.0001120688758 )
( -0.006336588878 0.0001899663766 0.0001821316546 )
( -0.006354262121 0.0001744670881 0.0001803593623 )
( -0.004269048106 -8.071219054e-05 5.342551958e-05 )
( -0.006921605207 0.0001718634012 0.0001835665025 )
( -0.007105921861 0.0001400050242 0.0001772016112 )
( -0.007104441058 0.0001332570246 0.0001769329974 )
( -0.003744773101 -0.0001793219417 -9.005668289e-06 )
( -0.007095641457 0.0001183897111 0.0001728049538 )
( -0.007101345342 0.0001233837684 0.0001757549762 )
( -0.003118511522 -0.0003035395057 -7.238336548e-05 )
( -0.007144461852 0.0001123383845 0.0001641801355 )
( -0.007140032947 0.0001035015812 0.0001630527986 )
( -0.007079798728 8.328553668e-05 0.0001467414259 )
( -0.007071509957 8.160985453e-05 0.000144848018 )
( -0.002421467565 -0.0004630677286 -0.0001632902568 )
( -0.007057080977 7.206732698e-05 0.0001344575867 )
( -0.007063415833 7.502536755e-05 0.0001395683648 )
( -0.001683987095 -0.0006152879796 -0.0002345498942 )
( -0.006900394335 5.67614552e-05 0.0001315262343 )
( -0.006889661774 4.773931141e-05 0.0001275854156 )
( -0.006579130888 3.050144005e-05 0.0001181903208 )
( -0.006569819991 2.692005728e-05 0.0001164992282 )
( -0.006555760279 2.290263001e-05 0.0001131797035 )
( -0.006563591305 2.647134534e-05 0.000114910843 )
( -0.006135567091 1.783218431e-05 0.0001103765171 )
( -0.005620336626 1.452890228e-05 0.0001073054518 )
( -0.005000732839 1.079552749e-05 9.981085168e-05 )
( -0.004282034002 8.088477443e-06 8.773922309e-05 )
( -0.003486304544 6.116506029e-06 7.263000589e-05 )
( -0.002654494019 4.410545898e-06 5.596844858e-05 )
( -0.001832525013 2.598529818e-06 3.876034316e-05 )
( -0.001058934722 1.183374366e-06 2.214278356e-05 )
( -0.0005053614732 5.388711202e-07 1.040464667e-05 )
( -0.00658596307 3.119761459e-05 0.0001202819767 )
( -0.006596866064 3.630429273e-05 0.0001227928296 )
( -0.007088871673 8.834549226e-05 0.0001502666564 )
( -0.007098232396 8.898817032e-05 0.0001521747472 )
( -0.007110887207 0.0001501600491 0.0001776253921 )
( -0.007114427164 0.0001567516301 0.0001770991948 )
( -0.004128681496 -7.203955465e-05 5.929371036e-05 )
( -0.006918364204 0.0001917572517 0.0001842053171 )
( -0.003607000457 -0.0001753136457 1.573916961e-06 )
( -0.007127424702 0.0001776465215 0.0001793673146 )
( -0.007124450989 0.0001691319339 0.0001785103086 )
( -0.007176896092 0.0001375779539 0.0001682801958 )
( -0.007161816116 0.0001257728582 0.000168593906 )
( -0.002973403782 -0.0002957679098 -5.004991181e-05 )
( -0.007146954536 0.0001131112003 0.0001676249813 )
( -0.007156630512 0.0001228429901 0.0001681484428 )
( -0.002266217256 -0.0004501337244 -0.0001329430961 )
( -0.007119398564 9.533944103e-05 0.000155417074 )
( -0.007110199891 9.400582348e-05 0.0001541422535 )
( -0.006943470798 7.369896048e-05 0.0001471867436 )
( -0.006928721443 6.665231922e-05 0.0001443983201 )
( -0.00153582904 -0.0006162197678 -0.0002188883518 )
( -0.006907123141 5.834003969e-05 0.0001360709866 )
( -0.006919933949 6.682374078e-05 0.0001403661445 )
( -0.006618320011 4.527494457e-05 0.0001293441746 )
( -0.006605734117 3.889189975e-05 0.0001258157426 )
( -0.006161535624 2.280045737e-05 0.0001150994649 )
( -0.006151710171 2.089100781e-05 0.0001136234932 )
( -0.006144072395 1.995032653e-05 0.0001121493115 )
( -0.005629178602 1.538397373e-05 0.0001088878489 )
( -0.005010822322 1.161832006e-05 0.0001011943168 )
( -0.00429188367 8.614250874e-06 8.919098764e-05 )
( -0.003496258985 6.551870683e-06 7.415184518e-05 )
( -0.002663095482 4.620542313e-06 5.742660869e-05 )
( -0.001839095494 2.755190053e-06 3.96408941e-05 )
( -0.001063197618 1.240872962e-06 2.259911707e-05 )
( -0.0005075109075 5.670194696e-07 1.068396068e-05 )
( -0.006170480046 2.416664211e-05 0.0001167897281 )
( -0.006182036828 2.726070306e-05 0.000118943768 )
( -0.00695381267 7.221744454e-05 0.0001498663914 )
( -0.006969838403 7.854268188e-05 0.0001514430187 )
( -0.007186480798 0.0001410056284 0.0001683681767 )
( -0.007200409658 0.0001525243424 0.0001675087551 )
( -0.003457007231 -0.0001786285284 1.256774613e-05 )
( -0.007131790742 0.000190013292 0.0001777613506 )
( -0.007134476211 0.0001955609914 0.0001776915742 )
( -0.002826157492 -0.0002951491333 -3.123696297e-05 )
( -0.007226619869 0.0001728504285 0.0001687418262 )
( -0.00720895268 0.0001575109491 0.0001689316559 )
( -0.007172340527 0.0001142644542 0.0001534598123 )
( -0.007157743908 0.0001112072787 0.0001539663936 )
( -0.00211276277 -0.000439374533 -9.802335262e-05 )
( -0.00713015534 0.0001013010333 0.0001554504997 )
( -0.007141981274 0.0001033002482 0.0001553333859 )
( -0.00137935672 -0.0006073433906 -0.0001804196654 )
( -0.006998264696 8.347475523e-05 0.0001525596163 )
( -0.006981167011 7.677444228e-05 0.000152659326 )
( -0.006674035452 5.943449287e-05 0.0001438134932 )
( -0.006656894926 5.531570787e-05 0.0001407517993 )
( -0.006629035808 4.835206346e-05 0.0001331300446 )
( -0.00664408505 5.396547931e-05 0.0001370872342 )
( -0.006207790226 3.428333366e-05 0.0001246671891 )
( -0.006193768233 3.014590402e-05 0.0001214920485 )