/*--------------------------------*- C++ -*----------------------------------*\
  =========                 |
  \\      /  F ield         | OpenFOAM: The Open Source CFD Toolbox
   \\    /   O peration     | Website:  https://openfoam.org
    \\  /    A nd           | Version:  8
     \\/     M anipulation  |
\*---------------------------------------------------------------------------*/






FoamFile
{
    version     2.0;
    format      ascii;
    class       volVectorField;
    location    "0";
    object      UDDES;
}
// * * * * * * * * * * * * * * * * * * * * * * * * * * * * * * * * * * * * * //

dimensions      [0 1 -1 0 0 0 0];


internalField   nonuniform List<vector> 
14418
(
( 0.003510715906 2.341524805e-06 6.29655915e-06 )
( 0.003407194512 1.726667278e-06 6.444212431e-06 )
( 0.006401023827 4.247262495e-06 1.134827289e-05 )
( 0.006551955827 3.211267085e-06 1.118175169e-05 )
( 0.003663954558 7.213596405e-07 2.027503797e-06 )
( 0.0120618064 1.015181715e-05 1.714193058e-05 )
( 0.01215239335 1.343960321e-05 1.568922016e-05 )
( 0.007075544447 2.221726618e-06 6.541392395e-06 )
( 0.004963402636 5.998624601e-07 1.904795454e-06 )
( 0.01878266595 5.073829379e-05 1.848771353e-05 )
( 0.01893232577 4.938409984e-05 1.752912794e-05 )
( 0.01198467892 9.040059922e-06 1.087473265e-05 )
( 0.007691267878 5.154142855e-07 6.282285085e-06 )
( 0.003427694784 1.519222224e-07 -1.491891908e-07 )
( 0.02505556867 0.0001277469855 2.520840826e-05 )
( 0.02537949942 0.0001285891194 2.221266732e-05 )
( 0.01897305623 4.084187822e-05 1.134362356e-05 )
( 0.01271171588 4.852741768e-06 1.179917399e-05 )
( 0.007105101831 2.996186765e-08 5.173315003e-06 )
( 0.003013286972 -5.458062802e-08 1.093916694e-06 )
( 0.02732346579 0.0001802356273 2.263198621e-05 )
( 0.02749591321 0.0001785341301 1.79495546e-05 )
( 0.02536152676 0.0001183778586 1.103364229e-05 )
( 0.01865839586 3.235091935e-05 1.292881007e-05 )
( 0.01212608907 2.201713414e-06 9.036660231e-06 )
( 0.006458862685 -5.087729278e-07 3.705876679e-06 )
( 0.003010345623 -2.008379454e-07 1.159646899e-06 )
( 0.02886706404 0.0002549908822 3.417044354e-07 )
( 0.02895684727 0.0002534390951 -3.30093917e-06 )
( 0.02765927091 0.0001755647972 1.506564104e-06 )
( 0.02533265203 0.0001058607959 8.226492355e-06 )
( 0.01917617209 2.663891973e-05 1.206692014e-05 )
( 0.01247289218 7.504306154e-07 8.234216693e-06 )
( 0.006458807737 -8.395359146e-07 3.748758672e-06 )
( 0.003006210318 -2.82678144e-07 1.227781013e-06 )
( 0.03000691161 0.0003060398449 -1.965639603e-05 )
( 0.02904952317 0.0002469650353 -1.922163756e-05 )
( 0.03017133288 0.0003219986975 -3.885892875e-05 )
( 0.02787028998 0.0001714246609 -3.58463285e-06 )
( 0.02543066442 9.834418597e-05 8.591216101e-06 )
( 0.01923323795 2.235746615e-05 1.225569031e-05 )
( 0.01248897891 -4.029804188e-07 8.311162674e-06 )
( 0.006455738097 -1.081137725e-06 3.815042874e-06 )
( 0.003001150908 -3.386877268e-07 1.288286512e-06 )
( 0.03059672192 0.0003556232841 -5.551308277e-05 )
( 0.02910918184 0.0002348530979 -2.221690738e-05 )
( 0.03003370017 0.0003050944069 -4.956365956e-05 )
( 0.03076697513 0.0003757071681 -7.575622294e-05 )
( 0.02795727178 0.0001609381579 -3.224403827e-06 )
( 0.02551078424 9.098210285e-05 9.080248674e-06 )
( 0.01927995868 1.877554496e-05 1.250124387e-05 )
( 0.01249934919 -1.354123469e-06 8.423899999e-06 )
( 0.0064504724 -1.278881655e-06 3.880082659e-06 )
( 0.003210978583 -4.523512303e-07 2.747321105e-06 )
( 0.03108511679 0.0004192985944 -0.0001053606684 )
( 0.02918132767 0.0002220498718 -2.217079236e-05 )
( 0.03005540185 0.0002951428469 -5.458017768e-05 )
( 0.030759288 0.0003761548141 -9.238730854e-05 )
( 0.02803356759 0.0001509114227 -2.888560402e-06 )
( 0.02558261529 8.358914056e-05 9.506219612e-06 )
( 0.01932007633 1.559980956e-05 1.274128135e-05 )
( 0.01250507589 -2.197017693e-06 8.544069715e-06 )
( 0.006442917511 -1.459409077e-06 3.9307306e-06 )
( 0.003393901978 -5.558930525e-07 4.027432624e-06 )
( 0.03154382855 0.0005293504219 -0.0001879629272 )
( 0.03112766333 0.0004201174597 -0.0001218321268 )
( 0.0292475149 0.0002097113611 -2.208465594e-05 )
( 0.030116776 0.0002816736524 -5.485699876e-05 )
( 0.03071478754 0.0003616615431 -9.122990014e-05 )
( 0.02810407802 0.0001408855751 -2.536371539e-06 )
( 0.02564860508 7.622631529e-05 9.904218132e-06 )
( 0.01935425587 1.262448222e-05 1.299744235e-05 )
( 0.01250690036 -2.988126198e-06 8.634496226e-06 )
( 0.006673271768 -1.71029069e-06 5.513949873e-06 )
( 0.003196382429 -5.419070703e-07 2.82485189e-06 )
( 0.03169412911 0.0006232730229 -0.0002429454471 )
( 0.03155741096 0.0005239795428 -0.0001915286412 )
( 0.03123950958 0.0003966778459 -0.0001447178511 )
( 0.02931087278 0.0001969202422 -2.214112101e-05 )
( 0.03017586283 0.000269487995 -5.518730541e-05 )
( 0.03078846075 0.0003472887329 -9.989730461e-05 )
( 0.02817071788 0.0001308722276 -2.294848855e-06 )
( 0.02570991963 6.898808351e-05 1.025184338e-05 )
( 0.01938362233 9.741705071e-06 1.325292396e-05 )
( 0.01250507683 -3.762777624e-06 8.70356871e-06 )
( 0.006422232836 -1.807402896e-06 4.001666184e-06 )
( 0.003186080139 -6.032320243e-07 2.839741001e-06 )
( 0.03165312484 0.0007260799757 -0.0002808035351 )
( 0.03170442954 0.0006171325804 -0.0002451002656 )
( 0.0316320993 0.0004922180087 -0.0002122580627 )
( 0.03134952113 0.0003602259676 -0.0001521043159 )
( 0.03083555028 0.0003339636605 -0.0001002725476 )
( 0.02937085927 0.0001844027138 -2.212610525e-05 )
( 0.03023261577 0.0002538358385 -5.551984577e-05 )
( 0.02823317237 0.0001207940877 -2.034909357e-06 )
( 0.02576679736 6.179321645e-05 1.057198278e-05 )
( 0.01940805279 6.910583124e-06 1.346835961e-05 )
( 0.01249942929 -4.506814548e-06 8.772273759e-06 )
( 0.006408692338 -1.981206651e-06 4.042745331e-06 )
( 0.003365193494 -7.21915967e-07 4.060172159e-06 )
( 0.03148529306 0.0008323942311 -0.0003035183763 )
( 0.03166968748 0.0007110666484 -0.0002792083833 )
( 0.03175327554 0.0005772914737 -0.0002547720505 )
( 0.03172707558 0.0004457020841 -0.0002165822953 )
( 0.03144379705 0.000319190789 -0.0001531503367 )
( 0.03089601919 0.0003141505586 -0.0001008506806 )
( 0.03093970381 0.0002998731798 -0.0001012759603 )
( 0.02942840382 0.0001713425154 -2.207804391e-05 )
( 0.03028700687 0.0002405429841 -5.587604028e-05 )
( 0.02829273418 0.0001107362914 -1.796627657e-06 )
( 0.02581970394 5.464265269e-05 1.089500802e-05 )
( 0.01942780055 4.121892744e-06 1.370315385e-05 )
( 0.01249036565 -5.256824352e-06 8.903686648e-06 )
( 0.00663188519 -2.241697985e-06 5.624828191e-06 )
( 0.003166416893 -7.003705491e-07 2.851137879e-06 )
( 0.03129461408 0.0009097731672 -0.0003116189619 )
( 0.03146244958 0.0008249332313 -0.0002982896403 )
( 0.03172317892 0.0006639872445 -0.0002831545717 )
( 0.03184605017 0.0005234013661 -0.0002582508605 )
( 0.03181986138 0.0003966705408 -0.000218142668 )
( 0.03152843192 0.0002771425352 -0.0001541977545 )
( 0.03099557944 0.0002789117571 -0.0001017810719 )
( 0.03103554621 0.0002638490114 -0.0001020390337 )
( 0.02948270179 0.0001587540173 -2.204254088e-05 )
( 0.03033926152 0.0002241128386 -5.605298065e-05 )
( 0.0283486452 0.0001006180828 -1.580972821e-06 )
( 0.02586857043 4.754376641e-05 1.119943045e-05 )
( 0.01944273338 1.379833861e-06 1.390213583e-05 )
( 0.01247754134 -5.961539046e-06 8.969298506e-06 )
( 0.006377072074 -2.31931449e-06 4.083083695e-06 )
( 0.003153228201 -7.614773949e-07 2.83436998e-06 )
( 0.03094324097 0.001011405606 -0.0003132746497 )
( 0.03122301586 0.0009201420471 -0.000307607319 )
( 0.03155880421 0.0007539950311 -0.0002992546069 )
( 0.03181321919 0.0006019152934 -0.0002853796177 )
( 0.03193767369 0.0004664462758 -0.0002600958105 )
( 0.0319025144 0.0003464916663 -0.0002197306167 )
( 0.03160355613 0.0002347884292 -0.0001553156326 )
( 0.03108531795 0.0002423187252 -0.0001024645244 )
( 0.03112149611 0.0002271293197 -0.0001027278777 )
( 0.03038917854 0.0002099141275 -5.623877587e-05 )
( 0.02953386866 0.0001456434256 -2.200195377e-05 )
( 0.02840170264 9.052149835e-05 -1.366562401e-06 )
( 0.02591348067 4.04542152e-05 1.150377193e-05 )
( 0.01945249923 -1.30570254e-06 1.407196214e-05 )
( 0.0124616567 -6.66727783e-06 9.025613508e-06 )
( 0.006358494051 -2.485778168e-06 4.074420758e-06 )
( 0.003327861894 -8.951716381e-07 4.040518888e-06 )
( 0.03045538813 0.001145423041 -0.0002862851252 )
( 0.030899968 0.001015182002 -0.0003124006034 )
( 0.03128817677 0.0008479580865 -0.0003089453094 )
( 0.03165720403 0.0006810069899 -0.0003013732785 )
( 0.03190285712 0.0005364072276 -0.000287244533 )
( 0.03201882914 0.0004082974046 -0.0002617777209 )
( 0.03197562695 0.0002957916586 -0.0002212578402 )
( 0.03166902065 0.000192103922 -0.0001563255355 )
( 0.03116603009 0.0002054816723 -0.0001031765933 )
( 0.03119686618 0.0001900973439 -0.0001033770677 )
( 0.03043575957 0.0001933053427 -5.639700976e-05 )
( 0.03048051521 0.0001787843212 -5.657887232e-05 )
( 0.02958247066 0.0001330143859 -2.196165042e-05 )
( 0.02845156193 8.036439976e-05 -1.144459475e-06 )
( 0.02595385164 3.343307253e-05 1.176009755e-05 )
( 0.01945777982 -3.952349289e-06 1.419044565e-05 )
( 0.01244264562 -7.36259517e-06 9.03952332e-06 )
( 0.006574221887 -2.754422212e-06 5.586271527e-06 )
( 0.003128666431 -8.625077612e-07 2.849262273e-06 )
( 0.029846441 0.001299239579 -0.0002062569401 )
( 0.03048484027 0.001110032666 -0.0002854098566 )
( 0.03095546737 0.0009305630811 -0.0003102355404 )
( 0.03139240295 0.0007591501344 -0.0003105801297 )
( 0.03174388036 0.0006060120068 -0.000302844157 )
( 0.03198137507 0.000469746592 -0.0002887086303 )
( 0.03208979964 0.000349577429 -0.00026321513 )
( 0.03203858435 0.0002449671738 -0.0002226177749 )
( 0.03172502294 0.0001498416095 -0.0001574934577 )
( 0.03123552911 0.0001681161521 -0.0001037000111 )
( 0.03126347438 0.0001527737622 -0.0001039588024 )
( 0.03052254394 0.0001621929114 -5.674346176e-05 )
( 0.03056081571 0.0001474813034 -5.694533684e-05 )
( 0.02962834761 0.0001198938553 -2.192890497e-05 )
( 0.02849795856 7.02264515e-05 -9.505411072e-07 )
( 0.02599061094 2.641368155e-05 1.20017603e-05 )
( 0.01945920475 -6.591136753e-06 1.431887813e-05 )
( 0.01242031902 -8.049399185e-06 9.054970178e-06 )
( 0.006316947751 -2.811855893e-06 4.070101568e-06 )
( 0.002902404638 -8.194643897e-07 1.48063441e-06 )
( 0.02930606343 0.00138831092 -7.760590233e-05 )
( 0.02995821834 0.001228665584 -0.0002261041955 )
( 0.03053322062 0.001019599382 -0.0002822398092 )
( 0.03103702515 0.0008365542162 -0.0003079735034 )
( 0.03147609904 0.0006742170081 -0.0003108542587 )
( 0.03181889653 0.0005301674828 -0.0003037247516 )
( 0.03204901144 0.0004026106617 -0.0002897531958 )
( 0.03215051815 0.000290737109 -0.0002643424377 )
( 0.03209220991 0.0001942445087 -0.0002237324807 )
( 0.03177127987 0.0001077001143 -0.0001585512946 )
( 0.03129671514 0.0001310888038 -0.0001044524979 )
( 0.03131962568 0.0001160219035 -0.000104873463 )
( 0.03059745021 0.0001308230858 -5.706794036e-05 )
( 0.0306321159 0.0001158655577 -5.725036317e-05 )
( 0.02967075445 0.0001072233426 -2.190425948e-05 )
( 0.02854107693 6.004549505e-05 -7.889175322e-07 )
( 0.0260235779 1.943723873e-05 1.225555934e-05 )
( 0.01945607737 -9.198029147e-06 1.443284691e-05 )
( 0.01239547133 -8.716702723e-06 9.072638932e-06 )
( 0.006293489132 -2.96881808e-06 4.07249172e-06 )
( 0.002888782881 -8.641179647e-07 1.510766992e-06 )
( 0.02899633348 0.001448033494 -8.654394151e-06 )
( 0.02944551967 0.001322955242 -0.000120668512 )
( 0.03005269542 0.001109373523 -0.0002215432032 )
( 0.03061486408 0.0009133373969 -0.0002789869613 )
( 0.03111750819 0.000741428521 -0.0003060457238 )
( 0.0315471366 0.0005891052424 -0.0003104851639 )
( 0.03188256174 0.0004542551469 -0.0003040809825 )
( 0.03210664541 0.0003355048248 -0.0002903829445 )
( 0.03220142797 0.0002320628555 -0.000265123701 )
( 0.03213602304 0.000143774887 -0.0002245621436 )
( 0.03180767968 6.589123223e-05 -0.0001595073554 )
( 0.03134697676 9.44495041e-05 -0.0001054016611 )
( 0.03136628121 7.923138037e-05 -0.0001057381742 )
( 0.03066375107 9.936740389e-05 -5.740242341e-05 )
( 0.03069199994 8.439399971e-05 -5.766765389e-05 )
( 0.02971063554 9.407100879e-05 -2.191890962e-05 )
( 0.02974793315 8.140873251e-05 -2.192847023e-05 )
( 0.02858095616 4.995077688e-05 -6.181869594e-07 )
( 0.02605255507 1.250557762e-05 1.250109199e-05 )
( 0.01944890991 -1.175395937e-05 1.454771154e-05 )
( 0.01236734539 -9.370850421e-06 9.081950338e-06 )
( 0.006269401405 -3.118717586e-06 4.071600415e-06 )
( 0.002873945516 -9.071932254e-07 1.425152391e-06 )
( 0.02904833481 0.001415017294 -3.764478242e-05 )
( 0.02842813544 0.001600082964 2.880323154e-05 )
( 0.02954393066 0.00120140845 -0.000145320053 )
( 0.03014202416 0.0009901715675 -0.0002184731711 )
( 0.03069219552 0.0008076379308 -0.0002759877534 )
( 0.0311850477 0.0006469931686 -0.0003039745789 )
( 0.03160735965 0.000504594529 -0.0003096774453 )
( 0.0319364816 0.0003787479945 -0.0003039855801 )
( 0.0321540609 0.0002687420347 -0.0002906215668 )
( 0.03224266693 0.0001737220882 -0.0002655639255 )
( 0.03216991946 9.364811558e-05 -0.0002250855323 )
( 0.03183423355 2.456924449e-05 -0.0001603687124 )
( 0.0313883163 5.785247413e-05 -0.0001062953525 )
( 0.03140327334 4.307917698e-05 -0.0001068218553 )
( 0.03071791306 6.825697346e-05 -5.801066436e-05 )
( 0.03074149042 5.326213068e-05 -5.833642354e-05 )
( 0.02978211641 6.829209451e-05 -2.191132808e-05 )
( 0.02981321141 5.564197272e-05 -2.199109804e-05 )
( 0.02861711383 3.989491233e-05 -4.589685432e-07 )
( 0.02607766353 5.620314369e-06 1.266619347e-05 )
( 0.01943767257 -1.429864733e-05 1.459488703e-05 )
( 0.01233680639 -1.001219698e-05 9.092575965e-06 )
( 0.006243508775 -3.265832675e-06 3.939250746e-06 )
( 0.002859164262 -9.508706285e-07 1.442231223e-06 )
( 0.02904388867 0.001292265602 -7.157752407e-05 )
( 0.02843483351 0.001571717788 2.053086428e-05 )
( 0.02786275744 0.001760198036 5.188744763e-05 )
( 0.02963239886 0.001068259357 -0.0001447194081 )
( 0.03021612577 0.000873243087 -0.0002169662621 )
( 0.03075629473 0.0007037452306 -0.0002737152681 )
( 0.03124212846 0.0005539371632 -0.0003020036966 )
( 0.03165771067 0.0004209692415 -0.0003086079669 )
( 0.031980481 0.0003038805735 -0.0003035357513 )
( 0.03219184279 0.0002024496207 -0.0002905242145 )
( 0.03227451444 0.0001157897277 -0.0002656733268 )
( 0.0321938768 4.390238973e-05 -0.0002252979757 )
( 0.0318509154 -1.637660534e-05 -0.000161041884 )
( 0.03141966462 2.190856503e-05 -0.0001074138927 )
( 0.03143017739 7.295086561e-06 -0.0001079490685 )
( 0.03076289222 3.755995567e-05 -5.877795047e-05 )
( 0.03078165278 2.255967047e-05 -5.917024828e-05 )
( 0.02984163165 4.253364023e-05 -2.20949496e-05 )
( 0.02986702882 2.999004209e-05 -2.226147262e-05 )
( 0.02865027823 2.991508154e-05 -3.200907486e-07 )
( 0.02609919757 -1.23646123e-06 1.275342584e-05 )
( 0.01942257769 -1.67871658e-05 1.465904461e-05 )
( 0.01230345946 -1.062928186e-05 8.883990631e-06 )
( 0.0062170811 -3.401245749e-06 3.891250799e-06 )
( 0.002842712915 -9.885985719e-07 1.442844905e-06 )
( 0.02910166793 0.001148410374 -8.029316086e-05 )
( 0.02847914211 0.001401067595 -2.579460306e-05 )
( 0.02787467651 0.001723146182 4.341120439e-05 )
( 0.02736523561 0.001917955582 5.204675108e-05 )
( 0.02970375121 0.0009395356756 -0.0001450972923 )
( 0.03027669899 0.0007596908254 -0.0002164634789 )
( 0.03081011213 0.0006023056339 -0.0002720805933 )
( 0.03128910065 0.0004622624256 -0.0003002388403 )
( 0.03169843927 0.0003382743162 -0.0003074318811 )
( 0.03201529011 0.0002296499733 -0.0003028544597 )
( 0.03222073615 0.0001366309589 -0.0002901441185 )
( 0.03229637817 5.828802387e-05 -0.0002654736454 )
( 0.03220813349 -5.444466296e-06 -0.0002252209524 )
( 0.03185823187 -5.693355342e-05 -0.0001615289657 )
( 0.0314405635 -1.351517767e-05 -0.0001085385375 )
( 0.03144685552 -2.796411718e-05 -0.0001090579608 )
( 0.03079800308 6.85109535e-06 -5.9568094e-05 )
( 0.03081100062 -8.034829989e-06 -6.005268006e-05 )
( 0.02988954633 1.72516211e-05 -2.251977094e-05 )
( 0.02990943007 4.921665095e-06 -2.269164906e-05 )
( 0.02868085541 1.977172906e-05 -2.527895049e-07 )
( 0.02870772965 9.813988072e-06 -2.224833224e-07 )
( 0.02611693554 -8.035884093e-06 1.288727981e-05 )
( 0.0194032453 -1.924160097e-05 1.459254599e-05 )
( 0.01226832811 -1.123139555e-05 8.841270756e-06 )
( 0.006188037805 -3.538228384e-06 3.901143828e-06 )
( 0.002825801959 -1.027781309e-06 1.516681095e-06 )
( 0.02917131409 0.001006906619 -8.081594569e-05 )
( 0.02856374718 0.00122895604 -3.491176176e-05 )
( 0.02795282006 0.001503264764 -3.271142305e-06 )
( 0.02737706713 0.001873436966 4.384689964e-05 )
( 0.02691294812 0.00210782513 4.155352144e-05 )
( 0.02975891903 0.0008163333405 -0.0001456467726 )
( 0.03032690287 0.0006500133895 -0.0002165445185 )
( 0.03085317835 0.0005028829328 -0.0002708567772 )
( 0.03132666647 0.0003718102234 -0.0002987490734 )
( 0.03173040599 0.0002562755253 -0.0003062805044 )
( 0.03204130381 0.0001559501252 -0.0003020425793 )
( 0.03224021941 7.125855336e-05 -0.0002895182988 )
( 0.03230838478 1.207449941e-06 -0.0002649746893 )
( 0.03221305087 -5.437969958e-05 -0.0002248892852 )
( 0.0318556577 -9.706618584e-05 -0.0001618400129 )
( 0.03145183995 -4.855798397e-05 -0.000109589957 )
( 0.03145388886 -6.283581024e-05 -0.000110072011 )
( 0.03082133457 -2.313153163e-05 -6.05560308e-05 )
( 0.03082908876 -3.786194429e-05 -6.107311492e-05 )
( 0.02992675453 -7.775222912e-06 -2.287213647e-05 )
( 0.02994088084 -1.984547089e-05 -2.31666927e-05 )
( 0.02873107418 -1.041944415e-07 -2.888298241e-07 )
( 0.02875099331 -9.932716239e-06 -2.468348157e-07 )
( 0.0261305701 -1.4781961e-05 1.295207676e-05 )
( 0.0193808116 -2.165186925e-05 1.462233558e-05 )
( 0.01222874504 -1.182168853e-05 8.835927474e-06 )
( 0.006156935357 -3.676417919e-06 3.966624263e-06 )
( 0.002807864221 -1.062945898e-06 1.54822078e-06 )
( 0.02922434732 0.0008739852346 -8.076033555e-05 )
( 0.02863267064 0.00107429584 -3.417096741e-05 )
( 0.02803673595 0.00130736921 -1.023690311e-05 )
( 0.0274577029 0.001606941107 2.791034376e-06 )
( 0.0269426778 0.001987525029 3.555584408e-05 )
( 0.02980474383 0.0006985004293 -0.0001463246008 )
( 0.03036767617 0.0005433208426 -0.000216876826 )
( 0.03088815138 0.0004049374256 -0.0002699797042 )
( 0.03135605156 0.0002821419039 -0.0002975612297 )
( 0.0317536965 0.0001747713104 -0.0003052437387 )
( 0.03205783665 8.269509271e-05 -0.0003011482186 )
( 0.03224992752 6.295794265e-06 -0.0002886560687 )
( 0.03231097385 -5.544969463e-05 -0.000264190021 )
( 0.03220814094 -0.0001028608822 -0.0002243328199 )
( 0.03184333444 -0.0001366778743 -0.000161992255 )
( 0.03145319596 -8.319482731e-05 -0.0001105370029 )
( 0.03145091981 -9.727949509e-05 -0.0001109728692 )
( 0.03083441593 -5.262100967e-05 -6.16016041e-05 )
( 0.03083715029 -6.717335782e-05 -6.212962035e-05 )
( 0.02995201014 -3.22023443e-05 -2.34419731e-05 )
( 0.02996029332 -4.420443292e-05 -2.381879676e-05 )
( 0.02876800671 -1.964702824e-05 -2.13134399e-07 )
( 0.0287818592 -2.919804683e-05 -2.3417374e-07 )
( 0.02614028007 -2.143993697e-05 1.314880865e-05 )
( 0.01935350709 -2.403301551e-05 1.470551797e-05 )
( 0.01218605973 -1.241321934e-05 8.946219168e-06 )
( 0.00612456305 -3.810723911e-06 4.025991529e-06 )
( 0.00471304683 -3.194953251e-06 3.074397455e-06 )
( 0.02926911972 0.0007481408538 -8.056847582e-05 )
( 0.02868771553 0.0009319852688 -3.261473466e-05 )
( 0.02810370922 0.001138841268 -6.45653563e-06 )
( 0.027537819 0.001384054427 2.009733635e-06 )
( 0.02702173404 0.0016967142 1.217533463e-05 )
( 0.02984516509 0.0005847075372 -0.0001473626471 )
( 0.03040169552 0.0004384090425 -0.0002174094843 )
( 0.03091643564 0.0003079110757 -0.0002694234718 )
( 0.03137764707 0.0001929733844 -0.0002966181492 )
( 0.03176809847 9.364531434e-05 -0.000304337329 )
( 0.03206516057 9.823919754e-06 -0.0003001792065 )
( 0.03225013986 -5.825691915e-05 -0.0002875547507 )
( 0.03230404109 -0.0001116304484 -0.0002631390234 )
( 0.03219360113 -0.0001507710404 -0.000223580384 )
( 0.03182169795 -0.0001755895646 -0.0001619948598 )
( 0.03144449741 -0.0001173584897 -0.0001113693652 )
( 0.03143797442 -0.0001312020759 -0.0001117558495 )
( 0.03083733283 -8.163358871e-05 -6.267107528e-05 )
( 0.03083487973 -9.613388102e-05 -6.319979002e-05 )
( 0.02996601537 -5.635968773e-05 -2.399664118e-05 )
( 0.02996886894 -6.806932652e-05 -2.432130714e-05 )
( 0.02879236266 -3.871512308e-05 -3.355276021e-07 )
( 0.02879966423 -4.81379866e-05 -5.034792139e-07 )
( 0.02614641376 -2.802562267e-05 1.331799467e-05 )
( 0.02614885569 -3.453062163e-05 1.346449062e-05 )
( 0.01932239905 -2.637790567e-05 1.481488653e-05 )
( 0.01214078441 -1.29827331e-05 9.008470442e-06 )
( 0.007054898888 -5.298746146e-06 4.782835276e-06 )
( 0.008859854192 -8.378777238e-06 6.538126854e-06 )
( 0.02931058966 0.0006280656671 -8.080497355e-05 )
( 0.02873541415 0.0007993754698 -3.068826845e-05 )
( 0.02815870941 0.0009876749245 -1.600136329e-06 )
( 0.02759818174 0.001200782484 1.158920168e-05 )
( 0.0270918943 0.00144954829 1.90158953e-05 )
( 0.02988036163 0.0004736232804 -0.0001487674308 )
( 0.03043027408 0.0003348601749 -0.0002181949676 )
( 0.03093770146 0.0002115046518 -0.0002690597612 )
( 0.03139128909 0.0001041430733 -0.0002958371479 )
( 0.03177407384 1.283174151e-05 -0.0003035145346 )
( 0.03206364438 -6.266833952e-05 -0.0002991140937 )
( 0.0322410576 -0.0001223293075 -0.0002862253459 )
( 0.03228765726 -0.0001671954524 -0.0002618572034 )
( 0.03216955811 -0.000197895366 -0.0002226470097 )
( 0.03178971633 -0.0002135732648 -0.0001618447568 )
( 0.03142602742 -0.0001507633424 -0.0001121319292 )
( 0.03141510859 -0.0001642911666 -0.0001124624978 )
( 0.0308299996 -0.0001101450835 -6.371242489e-05 )
( 0.03082232177 -0.0001243392617 -6.426657637e-05 )
( 0.02996885218 -7.998655929e-05 -2.4662535e-05 )
( 0.02996591106 -9.161017806e-05 -2.504298936e-05 )
( 0.02880369872 -5.758375482e-05 -3.01287514e-07 )
( 0.02880472131 -6.675883924e-05 -1.835348939e-07 )
( 0.02614754625 -4.094521864e-05 1.352676827e-05 )
( 0.02614260837 -4.725046529e-05 1.342990072e-05 )
( 0.01928754523 -2.867683725e-05 1.486606016e-05 )
( 0.01209407859 -1.351359242e-05 9.000798855e-06 )
( 0.01040284615 -9.5548221e-06 7.536153134e-06 )
( 0.007623787038 -6.855762877e-06 5.868524113e-06 )
( 0.02934678271 0.0005120713613 -8.149826317e-05 )
( 0.02877973765 0.0006743145059 -2.880415377e-05 )
( 0.02820785716 0.0008498444804 3.876196388e-06 )
( 0.0276485309 0.001041145064 2.175901318e-05 )
( 0.02714081109 0.001255100127 3.371257844e-05 )
( 0.02991002798 0.0003645083052 -0.000150653359 )
( 0.03045263141 0.000232086546 -0.0002192144748 )
( 0.03095158003 0.0001153494522 -0.0002688443055 )
( 0.03139700741 1.55418893e-05 -0.0002951441274 )
( 0.03177164868 -6.768412277e-05 -0.0003026945051 )
( 0.03205319867 -0.0001347057696 -0.0002979376877 )
( 0.03222257271 -0.0001857425377 -0.0002847088617 )
( 0.03226162493 -0.0002219028393 -0.0002603590256 )
( 0.0321354568 -0.0002439578093 -0.000221534865 )
( 0.0313973166 -0.000183508906 -0.0001127092473 )
( 0.03138210997 -0.0001966255513 -0.0001129731027 )
( 0.03174866736 -0.0002503526048 -0.0001615271321 )
( 0.03081204742 -0.0001376228465 -6.484136975e-05 )
( 0.03079940751 -0.0001515876502 -6.535069406e-05 )
( 0.02996019833 -0.0001032299333 -2.539890011e-05 )
( 0.0299515631 -0.0001144860289 -2.575391409e-05 )
( 0.0288024582 -7.591133908e-05 -2.034003046e-07 )
( 0.02879677899 -8.496135706e-05 -2.762508302e-07 )
( 0.02613344789 -5.360647992e-05 1.390975194e-05 )
( 0.02612108365 -5.978628542e-05 1.420774879e-05 )
( 0.01924976707 -3.088396261e-05 1.47752362e-05 )
( 0.01338787563 -1.59727133e-05 1.033719855e-05 )
( 0.009008976631 -8.224831618e-06 6.659582141e-06 )
( 0.006449353416 -5.773942576e-06 5.20583535e-06 )
( 0.0293769706 0.0003986243391 -8.292112034e-05 )
( 0.02881923877 0.0005546052125 -2.70284072e-05 )
( 0.02825454436 0.0007215278456 9.672942724e-06 )
( 0.02769596316 0.0008990078932 3.182208093e-05 )
( 0.02718103305 0.00109052367 4.661729326e-05 )
( 0.02993482724 0.0002562545997 -0.0001532125316 )
( 0.0304682143 0.0001291740627 -0.0002205511119 )
( 0.03095827252 1.920785689e-05 -0.0002688245149 )
( 0.03139460087 -7.291204383e-05 -0.0002945077722 )
( 0.03176051751 -0.0001478198101 -0.0003018379502 )
( 0.03203337267 -0.000206081837 -0.0002966771717 )
( 0.03219486028 -0.0002482098353 -0.0002830434241 )
( 0.03222572058 -0.0002754285233 -0.0002586608753 )
( 0.03209240362 -0.0002886238217 -0.0002202399191 )
( 0.03078403138 -0.0001646181772 -6.57780256e-05 )
( 0.03076590598 -0.0001783997286 -6.617511099e-05 )
( 0.03135907277 -0.0002152102097 -0.0001131289755 )
( 0.03133997321 -0.0002276932064 -0.000113372349 )
( 0.03169778362 -0.0002854304039 -0.0001611100306 )
( 0.02993982472 -0.000125634615 -2.615318954e-05 )
( 0.02992545255 -0.000136578863 -2.648955706e-05 )
( 0.02878785692 -9.388697072e-05 -3.439861302e-07 )
( 0.02877562866 -0.0001026088212 -3.997995464e-07 )
( 0.02610453218 -6.583667709e-05 1.442012945e-05 )
( 0.026084546 -7.187274605e-05 1.458134102e-05 )
( 0.01920675859 -3.312189801e-05 1.517246892e-05 )
( 0.01916109025 -3.527501758e-05 1.539625737e-05 )
( 0.01255460456 -1.53706078e-05 9.849592061e-06 )
( 0.008406466804 -7.633650057e-06 6.284381925e-06 )
( 0.006929265335 -6.508030765e-06 3.557793661e-06 )
( 0.0294044055 0.000285534421 -8.527916361e-05 )
( 0.02885339782 0.0004372645053 -2.56041385e-05 )
( 0.02829943225 0.0005989887286 1.548660111e-05 )
( 0.02774302661 0.0007681496209 4.140925375e-05 )
( 0.02722070366 0.0009466652409 5.748433614e-05 )
( 0.02995433845 0.0001472903386 -0.0001564946724 )
( 0.03047736362 2.576163752e-05 -0.0002223823976 )
( 0.03095733374 -7.707302575e-05 -0.0002690805122 )
( 0.03138368204 -0.0001611785992 -0.0002939595724 )
( 0.03174037859 -0.0002273389255 -0.000300972577 )
( 0.032004226 -0.0002764584497 -0.0002953695366 )
( 0.03215812892 -0.0003093655105 -0.0002812597377 )
( 0.0321813859 -0.0003273718758 -0.0002567803022 )
( 0.03204049543 -0.0003315339563 -0.0002187565697 )
( 0.02990824915 -0.0001474525488 -2.678400961e-05 )
( 0.02988796681 -0.0001580709795 -2.710600165e-05 )
( 0.03074503131 -0.0001907966362 -6.653868331e-05 )
( 0.03072150797 -0.0002039983228 -6.690923328e-05 )
( 0.03131109849 -0.0002452704066 -0.0001135222628 )
( 0.03128691018 -0.000257130916 -0.0001136713399 )
( 0.03163780645 -0.0003189009731 -0.0001603956771 )
( 0.02876009792 -0.0001112150931 -4.58035629e-07 )
( 0.02874131128 -0.0001196147859 -4.770436135e-07 )
( 0.02606022544 -7.778129657e-05 1.475356748e-05 )
( 0.02603274956 -8.353300655e-05 1.494917433e-05 )
( 0.0191107709 -3.736305371e-05 1.559402699e-05 )
( 0.01905740425 -3.945174467e-05 1.577435251e-05 )
( 0.01249851938 -1.59012634e-05 9.997198504e-06 )
( 0.008613312617 -8.202790013e-06 5.553605661e-06 )
( 0.008905800059 -9.226619113e-06 1.498093525e-06 )
( 0.02942788787 0.0001709660573 -8.804359823e-05 )
( 0.028884409 0.0003195885511 -2.432942892e-05 )
( 0.02834043466 0.0004783631884 2.104515806e-05 )
( 0.02778949589 0.0006430787616 4.960955994e-05 )
( 0.02726081014 0.0008147500921 6.578987814e-05 )
( 0.02996807918 3.711456884e-05 -0.0001603307755 )
( 0.03047991171 -7.835542783e-05 -0.0002247400698 )
( 0.03094827756 -0.0001735169208 -0.0002696539159 )
( 0.03136440367 -0.000248987606 -0.0002935575903 )
( 0.03171096742 -0.0003058555594 -0.000300138403 )
( 0.03196647391 -0.0003454063844 -0.0002940348932 )
( 0.03211281449 -0.0003687581629 -0.0002793807944 )
( 0.03212818131 -0.0003772997879 -0.000254737417 )
( 0.03197977319 -0.0003723289119 -0.0002171033702 )
( 0.02871926874 -0.0001279229036 -4.832434115e-07 )
( 0.02869381942 -0.0001361804752 -5.469261737e-07 )
( 0.02986482903 -0.0001684176532 -2.746002792e-05 )
( 0.02983873338 -0.0001782381878 -2.782914999e-05 )
( 0.03069574013 -0.0002155536349 -6.724692503e-05 )
( 0.03066749685 -0.0002283537469 -6.749129534e-05 )
( 0.03125268221 -0.0002739936172 -0.000113591741 )
( 0.03156979755 -0.0003502904146 -0.0001594627101 )
( 0.0312255919 -0.0002852504258 -0.0001135821003 )
( 0.02600049786 -8.915785293e-05 1.515676013e-05 )
( 0.02596575208 -9.463693277e-05 1.540251287e-05 )
( 0.01899871789 -4.145584535e-05 1.598096787e-05 )
( 0.01893699169 -4.340117812e-05 1.62283377e-05 )
( 0.01243836526 -1.639602124e-05 1.014793361e-05 )
( 0.009905179963 -1.028361839e-05 3.550131623e-06 )
( 0.009905742481 -1.106664786e-05 6.193523859e-06 )
( 0.02944606543 5.434991908e-05 -9.06046771e-05 )
( 0.02890883759 0.0001997505315 -2.219678572e-05 )
( 0.02837620117 0.0003565594961 2.66237148e-05 )
( 0.02783287503 0.000519159832 5.600387522e-05 )
( 0.0272991173 0.0006874370156 6.983510684e-05 )
( 0.02997597866 -7.47188169e-05 -0.0001643654687 )
( 0.03047472425 -0.000183168755 -0.0002274033759 )
( 0.03093099594 -0.0002697777527 -0.0002704937942 )
( 0.03133603185 -0.0003358979593 -0.0002933381766 )
( 0.03167279065 -0.0003828630724 -0.000299363106 )
( 0.03191978112 -0.0004124119296 -0.000292686047 )
( 0.03205839172 -0.0004258806293 -0.0002774367458 )
( 0.0320664607 -0.0004247822799 -0.0002525769814 )
( 0.03191037849 -0.0004106560955 -0.0002153045643 )
( 0.02592778951 -9.990953549e-05 1.56175538e-05 )
( 0.02866484597 -0.0001443274668 -6.151284424e-07 )
( 0.02588572726 -0.0001051742802 1.581277502e-05 )
( 0.02863306925 -0.0001518655918 -7.620997735e-07 )
( 0.02981037647 -0.0001878850308 -2.813393985e-05 )
( 0.02977949195 -0.0001972458558 -2.836834756e-05 )
( 0.03063690662 -0.000239193032 -6.768680032e-05 )
( 0.03149336576 -0.0003793397918 -0.0001583025587 )
( 0.03118678555 -0.000301037624 -0.0001133638798 )
( 0.03115555644 -0.000311387761 -0.0001132906764 )
( 0.03060394898 -0.0002513517393 -6.783693971e-05 )
( 0.01886837743 -4.528999125e-05 1.656239692e-05 )
( 0.01880184934 -4.707848711e-05 1.691441685e-05 )
( 0.01272879913 -1.740312655e-05 9.157272871e-06 )
( 0.01306946855 -1.862378122e-05 1.124492792e-05 )
( 0.01077119261 -1.187343878e-05 7.691540304e-06 )
( 0.007403451484 -7.759003893e-06 6.406698958e-06 )
( 0.0294587519 -6.537878653e-05 -9.242592932e-05 )
( 0.0289273411 7.647429447e-05 -1.898849223e-05 )
( 0.0284028165 0.0002320411586 3.285320054e-05 )
( 0.02787050232 0.0003930514795 6.111150287e-05 )
( 0.02733186632 0.0005596884876 7.057990297e-05 )