/*--------------------------------*- C++ -*----------------------------------*\
  =========                 |
  \\      /  F ield         | OpenFOAM: The Open Source CFD Toolbox
   \\    /   O peration     | Website:  https://openfoam.org
    \\  /    A nd           | Version:  8
     \\/     M anipulation  |
\*---------------------------------------------------------------------------*/






FoamFile
{
    version     2.0;
    format      ascii;
    class       volScalarField;
    location    "0";
    object      V;
}
// * * * * * * * * * * * * * * * * * * * * * * * * * * * * * * * * * * * * * //

dimensions      [0 3 0 0 0 0 0];


internalField   nonuniform List<scalar> 
14418
(
2.397397545e-05
2.488003136e-05
4.576811602e-05
4.702195742e-05
2.510709768e-05
8.751448109e-05
8.884511871e-05
4.74141177e-05
2.505643879e-05
0.0001678372646
0.0001677818345
8.949704785e-05
4.734980076e-05
2.495068293e-05
0.0003236707786
0.0003165456592
0.0001687764074
8.944802277e-05
4.719363191e-05
2.488325344e-05
0.0003003494129
0.000313266962
0.0003177309263
0.0001688676143
8.925167334e-05
4.709918311e-05
2.484425829e-05
0.000319216496
0.0003182453517
0.0003137830249
0.000318417402
0.0001687409399
8.914478301e-05
4.704495961e-05
2.482729643e-05
0.0003253055724
0.000318479122
0.0003247830928
0.0003138220276
0.0003188455899
0.0001687071713
8.908460677e-05
4.702120824e-05
2.482022535e-05
0.0003150439161
0.0003195586767
0.0003278996203
0.000323477865
0.0003138961808
0.0003192170385
0.0001686928697
8.90575875e-05
4.700944868e-05
2.481854492e-05
0.001024798715
0.0003203887486
0.0003324914532
0.0003485409152
0.0003138991421
0.0003194474491
0.0001686832915
8.903903144e-05
4.700421588e-05
2.481704552e-05
0.0009919625171
0.0009463237265
0.0003205126547
0.0003334882676
0.0003483856173
0.0003137875236
0.000319535273
0.0001686574392
8.902491834e-05
4.699795519e-05
2.481652062e-05
0.001015019274
0.0009908740649
0.0009412617487
0.0003203704282
0.000333816778
0.0003495321082
0.0003136053027
0.000319511946
0.00016862158
8.900617113e-05
4.699314753e-05
2.481696118e-05
0.001038525289
0.001013445821
0.000978542315
0.0009385702483
0.00034943046
0.0003201075641
0.0003337084931
0.000313380994
0.0003194225308
0.0001685715604
8.898920842e-05
4.699038821e-05
2.481585632e-05
0.001060056774
0.001038317248
0.001010634038
0.0009739417783
0.0009365877489
0.0003495078652
0.0003491374346
0.0003198062497
0.0003334768259
0.0003131395777
0.0003192950364
0.0001685222632
8.897635331e-05
4.698550974e-05
2.481638242e-05
0.001078495432
0.00106086064
0.001037251928
0.001006724686
0.00097123853
0.0009349113682
0.0003489138029
0.0003485251328
0.0003194970464
0.0003331547428
0.0003129012139
0.0003191609538
0.0001684805274
8.896134885e-05
4.698429809e-05
2.481694385e-05
0.001093328381
0.001079958911
0.001060781278
0.0010355907
0.001004193139
0.0009693990231
0.0009335685208
0.0003482590735
0.0003479240714
0.0003328373615
0.0003192045322
0.0003126811125
0.0003190384373
0.0001684394514
8.895416612e-05
4.698392145e-05
2.48159555e-05
0.00110441216
0.00109492758
0.001080301842
0.001060095533
0.001033878964
0.001002504463
0.0009681040705
0.0009325941588
0.0003476904459
0.0003474369677
0.0003325194516
0.00033223772
0.0003189384519
0.000312488545
0.0003189303697
0.0001684140442
8.895010722e-05
4.698150345e-05
2.481628707e-05
0.001120626483
0.001105118585
0.001095096863
0.001079978493
0.001059238769
0.001032663991
0.001001419192
0.0009672542402
0.0009319832753
0.0003472600776
0.0003470947861
0.0003319822893
0.0003317703615
0.0003187078865
0.0003123289755
0.000318850752
0.0001683977705
8.894424588e-05
4.698207268e-05
2.48160124e-05
0.001106499029
0.00112311447
0.00110462804
0.001094623611
0.001079517611
0.001058633611
0.001031977855
0.001000814343
0.0009667883844
0.0009316912165
0.0003469768123
0.0003468921084
0.0003315926817
0.0003314552386
0.0003185145272
0.0003122032766
0.0003187956823
0.0001683833815
8.894481694e-05
4.698209955e-05
2.481604748e-05
0.001097253974
0.00110872912
0.00112325974
0.001103489433
0.001094120405
0.00107943876
0.001058510466
0.001031769793
0.001000603642
0.0009666388514
0.0009316493634
0.0003468250176
0.0003468051963
0.0003313511036
0.0003312786569
0.0003183598267
0.0003182411459
0.0003121102447
0.0003187590865
0.0001683821103
8.894573052e-05
4.698311673e-05
2.481542353e-05
0.001100307835
0.001084470912
0.001109908834
0.001122888461
0.001102588304
0.001094162026
0.001080006171
0.001058877804
0.001031955136
0.001000699574
0.0009667269656
0.0009317817841
0.0003467772594
0.0003468037654
0.0003312345592
0.0003312120721
0.0003181558732
0.0003180998963
0.0003120468421
0.0003187471555
0.0001683848067
8.894929588e-05
4.698330052e-05
2.481641775e-05
0.001101812678
0.001087682694
0.001068652805
0.001110576792
0.001123583763
0.001102429666
0.001095580787
0.001081187315
0.001059641572
0.001032426496
0.001001008269
0.0009669719028
0.0009320179315
0.0003468030473
0.0003468580862
0.0003312116384
0.0003312234009
0.0003180690495
0.0003180593889
0.0003120093096
0.0003187517516
0.0001683940843
8.895227296e-05
4.698661885e-05
2.4816066e-05
0.001102407261
0.001089281519
0.001071748037
0.001050848351
0.001111801383
0.001125287205
0.001103202666
0.001098030407
0.001082790029
0.001060655444
0.001033065902
0.001001439105
0.0009673011627
0.0009322999645
0.0003468742181
0.0003469428692
0.0003312510119
0.0003312831846
0.0003180664617
0.0003180870352
0.0003119942903
0.0003119972996
0.0003187720519
0.0001684048466
8.896107397e-05
4.698770426e-05
2.4815564e-05
0.001102575744
0.001089591711
0.001073005315
0.001053538807
0.001033627237
0.001118529499
0.001127743874
0.001109015911
0.00110094207
0.001084562766
0.001061755926
0.001033766727
0.001001916504
0.0009676573969
0.0009325854761
0.0003469677613
0.0003470388099
0.0003313258589
0.0003313676508
0.0003181170411
0.0003181542893
0.0003120152393
0.0003120440681
0.0003188026843
0.000168425571
8.896653823e-05
4.698861865e-05
2.48159995e-05
0.001098539112
0.001088596942
0.001072791434
0.001053693035
0.001037864609
0.001124441722
0.001126377233
0.001115241566
0.001103753888
0.001086257392
0.001062815833
0.001034451972
0.001002385774
0.0009680003297
0.0009328469563
0.0003470666762
0.0003471325409
0.0003314156766
0.0003314594436
0.0003181955189
0.0003182394427
0.0003120808188
0.0003121225672
0.0003188471096
0.0001684427333
8.897195022e-05
4.699124213e-05
2.48159435e-05
0.001095014193
0.001087219834
0.00107189233
0.001051807915
0.001028277445
0.001127252077
0.001124064704
0.001117663393
0.001105976695
0.001087744864
0.001063769359
0.00103507536
0.001002811979
0.0009683051896
0.0009330697012
0.0003471595896
0.0003472158659
0.0003315062485
0.0003315470502
0.0003182835747
0.0003183274061
0.0003121674979
0.0003122138456
0.0003188937562
0.0003189437596
0.0001684605267
8.898034587e-05
4.699298543e-05
2.48161975e-05
0.001098350148
0.001086307332
0.001071136062
0.001050925744
0.001025929862
0.001131136149
0.00112589017
0.001120402671
0.001107977247
0.001089034354
0.001064591241
0.001035611905
0.00100317583
0.0009685596991
0.0009332488168
0.0003472400287
0.0003472851118
0.0003315885362
0.0003316234448
0.0003183691474
0.0003184088428
0.0003122596654
0.0003123042344
0.0003189988328
0.0003190532262
0.0001684829679
8.898728572e-05
4.699523707e-05
2.481562525e-05
0.001108779314
0.001086315414
0.001070612262
0.001050734565
0.001025684488
0.001135841992
0.001128177234
0.001123138681
0.001109711786
0.001090109853
0.001065267302
0.001036050303
0.001003469874
0.000968760977
0.0003473057828
0.000347339963
0.0009333859788
0.0003316576433
0.0003316859241
0.000318445086
0.0003184780353
0.0003123468405
0.0003123865564
0.0003191075055
0.0003191577062
0.0001685034574
8.899498312e-05
4.699594516e-05
2.481603475e-05
0.001120478653
0.001081780019
0.001069612701
0.00105086246
0.001026591849
0.001141084877
0.001133243057
0.001125589821
0.001111124573
0.00109095824
0.001065794799
0.001036390339
0.001003695515
0.0009689124967
0.0003317130306
0.0003317352989
0.000347357112
0.0003473816029
0.0009334868277
0.0003185068826
0.0003185327666
0.0003124236216
0.000312456297
0.0003192085454
0.0003192569924
0.0001685248103
0.0001685419602
8.899995372e-05
4.69983122e-05
2.48166855e-05
0.001126790435
0.001079823884
0.001068882981
0.001051090739
0.001028053035
0.001143355338
0.001137170915
0.00112746232
0.001112176
0.001091584805
0.001066183858
0.001036640426
0.001003859973
0.0009690213985
0.0003185556752
0.0003185763469
0.0003317558902
0.0003317725646
0.0003473955898
0.0003474124552
0.0009335583917
0.0003124843191
0.0003125074258
0.0003192971016
0.0003193430174
0.0001685623234
0.0001685825147
8.900750518e-05
4.700100137e-05
2.481554875e-05
0.001133671597
0.001085407112
0.001068847842
0.001051319086
0.001029551375
0.001143570432
0.001139054186
0.001128671351
0.001112893876
0.001092018277
0.001066454358
0.001036814106
0.001003973582
0.0009690962234
0.0003125310071
0.0003125524064
0.0003185939037
0.0003186086506
0.0003317876272
0.0003318002496
0.0003474239072
0.0009336073557
0.0003474351047
0.0003193742779
0.000319395716
0.00016859392
0.0001686183177
8.901536644e-05
4.700039038e-05
2.481784125e-05
0.001140666155
0.001098860307
0.001069679463
0.001051327198
0.001030650986
0.001146237345
0.001140419931
0.001129459141
0.001113355529
0.001092298256
0.001066629714
0.001036926885
0.001004047655
0.0009691454706
0.0003194151632
0.0003125714132
0.0003194656929
0.0003125849114
0.0003186210529
0.0003186323552
0.0003318116751
0.000933639786
0.0003474439667
0.0003474508548
0.00033182129
0.0001686274526
0.0001686284765
8.901747043e-05
8.902930748e-05
4.700576764e-05
2.48169355e-05
0.001147218246
0.001114724837
0.001064945153
0.001050149546
0.00103094393
0.001147402969
0.001141223479
0.001129916936
0.001113623369
0.001092461686
0.001066732661
0.001036993956
0.001004092929
0.0009691767848
0.0001686260442
0.0003194803912
0.0001686694891
0.0003125952308
0.0003194944098
0.0003126062672
0.0003186429575
0.0009336613417
0.0003474613087
0.0003474572319
0.0003318291999
0.0003318354568
0.0003186522679
8.903107113e-05
8.902781928e-05
4.700531238e-05
2.4814531e-05
0.001150796769
0.001123687149
0.001062767173
0.001048529339
0.001030304684
0.001148381548
0.001141647965
0.001130136032
0.001113751998
0.001092540729
0.001066783611
0.001037029127
0.001004118811
0.000969196535
8.902219616e-05
0.0001686656061
8.904911631e-05
0.0003195127401
0.0001686672386
0.0003195110538
0.000312619941
0.0009336765318
0.0003474658388
0.0003474683312
0.0003318443228
0.0003318403478
0.0003186594476
0.0003186646387
0.0003126337299
4.700205605e-05
2.481142275e-05
0.001151460323
0.001132363909
0.001077371656
0.00104701663
0.001028723471
0.001148673497
0.001141746158
0.001130191106
0.001113785424
0.001092562351
0.001066800277
0.001037044106
0.001004132939
0.0009692095262
4.69974532e-05
8.904319773e-05
4.701240884e-05
0.0001686789029
8.904188724e-05
0.0001686617512
0.0003195344588
0.0009336882096
0.0003474716572
0.00034747352
0.0003318473054
0.0003318497278
0.0003186720173
0.0003186687525
0.0003126414235
0.0003126436239
0.0003195830088
2.4819333e-05
0.001150545437
0.001142249135
0.001094703525
0.001038189601
0.001025327208
0.001148470263
0.001141662422
0.001130145446
0.001113758557
0.001092549159
0.001066797428
0.001037048217
0.001004140932
0.0009692190352
4.700787594e-05
8.904810394e-05
4.700628252e-05
8.903408722e-05
0.0001686748868
0.0009336977519
0.0003474761739
0.000347477798
0.0003318516494
0.0003318535456
0.0003186742729
0.0003186754808
0.0003126527272
0.0003126469076
0.0003195944932
0.000319567634
0.0001687219741
2.481637425e-05
0.001150865945
0.001148671539
0.001103660604
0.001032299825
0.001021088007
0.001148241004
0.001141492026
0.001130041846
0.001113700174
0.001092519965
0.001066786551
0.001037048157
0.001004146529
0.0009692269326
4.700932023e-05
2.4815123e-05
4.700030562e-05
8.9040867e-05
0.0009337056902
0.0003474798662
0.0003474812263
0.000331855277
0.0003318569616
0.0003186765318
0.0003186778119
0.0003126548682
0.0003126541252
0.0003196026528
0.0003195706814
0.0001687271428
0.0001686877966
8.907138807e-05
0.001150191266
0.00115143256
0.001111606103
0.001046030069
0.001016850722
0.001147813021
0.001141258765
0.001129916702
0.001113634827
0.001092488945
0.001066775407
0.001037048075
0.001004151906
0.0009692342337
2.48165195e-05
2.4811191e-05
4.700364841e-05
0.0009337125154
0.0003474826906
0.0003474838446
0.0003318583657
0.000331859579
0.0003186793338
0.0003186806652
0.0003126535152
0.0003126561145
0.0003196088942
0.0003195825549
0.0001687233285
0.0001686877738
8.907360137e-05
8.904559505e-05
4.70211727e-05
0.001149042361
0.001148053391
0.00111768824
0.001060148609
0.001003814023
0.001147335471
0.001141037821
0.001129806562
0.001113580065
0.001092464626
0.001066768248
0.001037050069
0.001004158112
0.0009692415144
2.481278575e-05
0.0009337188953
0.0003474848728
0.0003474859431
0.0003318605745
0.0003318614351
0.0003186817245
0.0003186825438
0.0003126581538
0.0003126594761
0.0003195931854
0.0003196020864
0.0001687274205
0.0001686900206
8.906878986e-05
8.904495252e-05
4.702205897e-05
4.70051443e-05
2.482234425e-05
0.001148052354
0.001143397901
0.001126059195
0.001064466791
0.0009931779534
0.001147001907
0.001140886734
0.001129730718
0.001113543417
0.001092450302
0.001066766516
0.001037054914
0.001004165691
0.0009692493986
0.0009337257001
0.0003474866405
0.000347487706
0.0003318622203
0.0003318629314
0.0003186831671
0.000318683695
0.0003126605938
0.0003126614209
0.0003196023975
0.0003196048857
0.0001687042619
0.0001687124088
8.907102747e-05
8.904458794e-05
4.70184573e-05
4.700453839e-05
2.482266e-05
2.481307475e-05
0.001147876901
0.001143618052
0.001133076258
0.001068269517
0.0009937614179
0.001146872589
0.001140809589
0.0011296889
0.001113524478
0.001092445623
0.001066770146
0.001037062801
0.001004175167
0.0009692587269
0.0009337341003
0.0003474881615
0.0003474894273
0.0003318636127
0.00033186416
0.0003186842085
0.0003186848096
0.0003126618449
0.0003126620543
0.0003196088297
0.000319608813
0.00016870945
0.0001687105156
8.905441226e-05
8.905961548e-05
4.701958124e-05
4.700368386e-05
2.482031175e-05
2.48126315e-05
0.001147882741
0.001143887501
0.001134546902
0.00107133588
0.00099503548
0.001146836262
0.001140778998
0.001129671923
0.001113519402
0.00109244893
0.001066778636
0.001037074022
0.001004187296
0.0009692705833
0.0009337453166
0.0003474897988
0.0003474915733
0.0003318646882
0.0003318651146
0.0003186853799
0.0003186858414
0.0003126626191
0.0003126631716
0.0003196096741
0.0003196112485
0.0001687139878
0.0001687123672
8.905713404e-05
8.90575897e-05
4.700945948e-05
4.701242662e-05
2.48208485e-05
2.481187575e-05
0.001147940263
0.00114413831
0.001135420937
0.001073425574
0.000996331765
0.001146840907
0.001140774698
0.0011296711
0.001113524283
0.001092458721
0.001066791923
0.001037089338
0.001004203279
0.0009692862163
0.0003474919811
0.0003474945328
0.0003318657247
0.0003318663356
0.0003186861088
0.0003186862808
0.0003126641199
0.0003126647267
0.0003196094186
0.0003196130891
0.0001687125224
0.0001687140509
8.905978602e-05
8.905846519e-05
4.701083717e-05
4.701102858e-05
2.481506225e-05
2.48166725e-05
0.001148003074
0.001144323942
0.001135924722
0.00107430319
0.00099731807
0.001146861697
0.001140784311
0.001129680371
0.001113536489
0.001092474478
0.001066810769
0.001037110171
0.001004224654
0.000331867242
0.000331868043
0.0003186865481
0.0003186870436
0.0003126647347
0.0003126644669
0.0003196134458
0.0003196150804
0.0001687105321
0.0001687148865
8.90584469e-05
8.905943368e-05
4.701227364e-05
4.701143483e-05
2.48157405e-05
2.4815818e-05
0.001148058508
0.001144455174
0.001136230274
0.001074753224
0.0009979222636
0.001146887791
0.001140801189
0.001129696401
0.001113555187
0.001092497097
0.001066837046
0.001037138618
0.000318687679
0.0003186882869
0.0003126642163
0.0003126647609
0.0003196163648
0.0003196125755
0.0001687141991
0.0001687157499
8.905685975e-05
8.905983304e-05
4.701138688e-05
4.70119534e-05
2.4816493e-05
2.481600575e-05
0.001148104694
0.001144547104
0.001136419145
0.001075002472
0.0009982245052
0.001146914945
0.001140822436
0.001129718457
0.001113581561
0.001092529093
0.001066873722
0.0003126656196
0.0003126660503
0.0003196125313
0.0003196129684
0.0001687175628
0.0001687126697
8.9059228e-05
8.906024459e-05
4.701039319e-05
4.701215072e-05
2.481596675e-05
2.48162755e-05
0.001148143233
0.001144612636
0.001136538983
0.001075154009
0.0009983952541
0.001146942322
0.001140848006
0.001129748208
0.001113618996
0.001092574644
0.0003196147694
0.0003196165531
0.0001687131379
0.0001687135031
8.906151321e-05
8.905811679e-05
4.701176353e-05
4.701235432e-05
2.48153925e-05
2.481637225e-05
0.001148176777
0.001144661256
0.001136617795
0.001075252345
0.0009985054484
0.001146971255
0.001140880372
0.00112979006
0.001113673199
0.0001687155274
0.0001687181387
8.905850501e-05
8.905874574e-05
4.701311161e-05
4.701109291e-05
2.48161505e-05
2.481647875e-05
0.001148208495
0.00114469981
0.001136672511
0.001075318065
0.0009985819498
0.001147005086
0.001140924869
0.00112985145
8.906013696e-05
8.906200874e-05
4.70113394e-05
4.701149228e-05
2.481690325e-05
2.48157735e-05
0.001148242561
0.001144733445
0.001136713726
0.001075361958
0.000998634116
0.001147049858
0.001140990511
4.701232278e-05
4.701345828e-05
2.481591525e-05
2.48160045e-05
0.001148285103
0.001144766746
0.001136748211
0.001075390853
0.0009986662319
0.001147115559
2.481647725e-05
2.4817124e-05
0.001148346045
0.001144805155
0.001136780471
0.001075410123
0.00099868183
0.0009818330269
0.001144856986
0.001136814245
0.001075425279
0.0009986854364
0.0009818516228
0.0003776491837
0.0003776534722
0.001136854529
0.001075443313
0.0009986840425
0.0009818618992
0.0003776561859
0.0003776586098
0.0003686083893
0.0003686113157
0.001075475243
0.0009986887396
0.0009818704002
0.0003776600464
0.0003776617092
0.0003686133158
0.0003686145012
0.0003596897677
0.0003596917335
0.0009987175421
0.000981886131
0.0003776630378
0.000377665231
0.0003686152521
0.0003686157227
0.0003596927744
0.0003596931176
0.0003511168198
0.0003511178808
0.0009819234852
0.0003776679811
0.0003776724574
0.0003686163026
0.0003686172474
0.0003596929787
0.0003596926378
0.0003511180935
0.00035111766
0.0003430798769
0.000343080168
0.0003776789511
0.0003776886119
0.0003686190307
0.0003686220678
0.0003596923446
0.0003596924252
0.0003511168021
0.000351115746
0.0003430796814
0.0003430786085
0.0003357236162
0.0003357232764
0.0003686270614
0.0003686348658
0.0003596932209
0.0003596951599
0.0003511147496
0.0003511140976
0.0003430771583
0.0003430755461
0.0003357222237
0.0003357206646
0.0003596988402
0.0003597050218
0.0003511140993
0.0003511151344
0.0003430740033
0.0003430727865
0.0003357187758
0.000335716756
0.0003291347921
0.0003291328813
0.0003511177328
0.000351122591
0.0003430721664
0.0003430725
0.0003357148228
0.0003357132038
0.0003291307039
0.0003291284281
0.0003430742314
0.0003430780069
0.0003357121333
0.0003357119335
0.0003291262487
0.0003291243786
0.0003357130015
0.0003357159127
0.0003291230158
0.0003291224429
0.0003291230214
0.0003291252554
0.0009815874387
0.0003783780856
0.0009807857719
0.0003693578709
0.0003779588082
0.0003778426171
0.0009807287691
0.0003604132056
0.0003690854738
0.0003688631058
0.0003776089205
0.0003775944251
0.0009809457447
0.0003517444652
0.0003601783748
0.0003599932385
0.0003687224578
0.0003686132372
0.0003774866749
0.0009812086901
0.0003775115222
0.0003435739394
0.0003515608078
0.0003514097327
0.0003598529047
0.000359754664
0.0003685570777
0.0009814216821
0.0003774784063
0.0003775109861
0.0003685173197
0.0003360661179
0.0003434409864
0.0003433276592
0.0003512917062
0.0003512040551
0.0003596878658
0.0009815712479
0.0003775415674
0.0003775134066
0.0003685064991
0.0003685024646
0.0003596477848
0.0003293228337
0.0003359814825
0.0003359055925
0.0003432358334
0.0003431652429
0.00035114279
0.0009816763987
0.0003775553679
0.00037757682
0.0003685212653
0.0003685111285
0.0003596256588
0.0003596175436
0.0003511027224
0.0003233800014
0.0003292832256
0.000329242978
0.0003358414702
0.0003357903217
0.0003431139436
0.0009817503606
0.0003775910909
0.0003776066719
0.0003685352346
0.00036854832
0.0003596236826
0.000359617727
0.0003510791882
0.0003510676726
0.0003430791111
0.0003182098661
0.0003233822868
0.0003233754499
0.0003292060736
0.0003291748914
0.0003357519214
0.0009818008411
0.0003776181337
0.0003776289916
0.0003685614424
0.0003685729034
0.0003596323064
0.0003596422696
0.0003510669898
0.0003510646137
0.0003430574806
0.0003430459558
0.0003357250295
0.0003137275246
0.0003182516948
0.0003182763066
0.0003233644426
0.0003233527015
0.0003291504988
0.0003776370628
0.0003776441809
0.000368583175
0.0003685916686
0.0003596521985
0.0003596615316
0.0003510726281
0.0003510798456
0.0003430424192
0.0003430417215
0.0003357078458
0.0003356983674
0.0003291329488
0.0003098002962
0.0003138076257
0.0003138623789
0.0003182897555
0.0003182965301
0.0003233423769
0.0003685987343
0.0003686042034
0.0003596697755
0.0003596767662
0.0003510875457
0.0003510949378
0.0003430461868
0.0003430515901
0.0003356949699
0.0003356946595
0.0003291216077
0.0003291154856
0.000323334606
0.0003062584487
0.0003099184877
0.0003100028262
0.000313899124
0.0003139234941
0.0003182998075
0.0003596823986
0.000359686714
0.00035110156
0.0003511071392
0.0003430575938
0.0003430634752
0.0003356978578
0.0003357021581
0.0003291142524
0.0003291134105
0.0003233297353
0.0003233276394
0.000318301681
0.000302906102
0.0003064154086
0.0003065293679
0.0003100621326
0.0003101033712
0.0003139397251
0.0003511115364
0.0003511147445
0.0003430687361
0.0003430731038
0.0003357069833
0.0003357117107
0.000329116983
0.0003291207297
0.0003233298038
0.0003233278566
0.0003183033963
0.0003183055684
0.000313950855
0.0002995315849
0.0003031029099
0.000303246787
0.0003066108836
0.000306668453
0.0003101319232
0.0003430764305
0.0003430786705
0.0003357158934
0.0003357192692
0.0003291248133
0.0003291287171
0.0003233328735
0.0003233364686
0.0003183117548
0.0003183083839
0.0003139589634
0.0003139653721
0.0003101518268
0.0002959170445
0.0002997691034
0.000299942971
0.0003033503101
0.0003034237258
0.0003067087572
0.000335721689
0.0003357231306
0.0003291320689
0.0003291346598
0.0003233401418
0.00032334349
0.0003183154568
0.0003183191831
0.0003139757656
0.000313970848
0.0003101659912
0.0003101764349
0.0003067369149
0.0002918475139
0.0002961951601
0.0002963982736
0.0003000680832
0.000300156688
0.0003034752075
0.0003291363554
0.000329137149
0.000323346237
0.0003233482343
0.0003183226739
0.0003183256747
0.00031398025
0.0003139842651
0.0003101909263
0.0003101844752
0.0003067567269
0.0003067709043
0.0003035110594
0.0002871198166
0.0002921642789
0.0002923944443
0.0002965439116
0.0002966465666
0.0003002186113
0.0003233493795
0.0003233496804
0.0003183280096
0.000318329574
0.0003139877309
0.0003139905362
0.000310196229
0.0003102006001
0.0003067891871
0.0003067813161
0.0003035360382
0.0003035535758
0.0003002614738
0.0002815517304
0.0002874705978
0.0002925584556
0.0002877235638
0.0002926732447
0.0002967178641
0.0003183303237
0.000318330279
0.0003139925956
0.0003139938651
0.0003102041348
0.0003102068368
0.0003067952623
0.0003067999919
0.0003035752
0.0003035660899
0.0003002910409
0.0003003114869
0.0002967668245
0.000274991689
0.0002819285035
0.0002879023381
0.0002821975559
0.000288026354
0.0002927523351
0.0003139943443
0.0003139940737
0.0003102087179
0.000310209793
0.0003068036166
0.0003068062681
0.0003035819432
0.0003035869731
0.0003003358787
0.0003003257662
0.0002968002462
0.0002968230488
0.0002928061596
0.0002753826812
0.000267329062
0.0002823857843
0.0002756585253
0.0002825150523
0.0002881110226
0.0003102100942
0.0003102096947
0.0003068080329
0.0003068089753
0.0003035906717
0.0003035932807
0.0003003431386
0.0003003483715
0.0002968495299
0.0002968386929
0.0002928425052
0.0002928669916
0.0002881680838
0.0002677189001
0.0002585047454
0.0002758492544
0.0002679899851
0.0002759788213
0.0002826024227
0.000306809167
0.0003068087027
0.000303594956
0.0003035958024
0.0003003520998
0.0003003546455
0.0002968571126
0.0002968624311
0.0002928947698
0.0002928835279
0.0002882062039
0.0002882315811
0.000282660723
0.0002588752248
0.0002485213282
0.0002681750219
0.0002591286278
0.000276065491
0.0002682993151
0.0003035959288
0.0003035954387
0.000300356228
0.0003003569917
0.0002968661129
0.0002968685586
0.0002929024597
0.0002929077259
0.0002882597651
0.0002882484735
0.000282699271
0.0002827246402
0.0002761227637
0.000248852973
0.0002374519671
0.0002592993301
0.0002490758951
0.0002683816428
0.0002594127984
0.0003003570756
0.0003003565832
0.000296870033
0.0002968707174
0.0002929112799
0.0002929135748
0.000288267338
0.0002882724071
0.0002827522804
0.0002827413124
0.0002761602689
0.0002761846801
0.0002684355485
0.0002377265796
0.0002254418282
0.0002492243225
0.0002379083174
0.0002594873031
0.0002493222235
0.000296870762
0.000292914922
0.0002929155218
0.0002882757461
0.0002882778502
0.0002827595051
0.0002827642389
0.0002762108058
0.0002762005359
0.0002684705197
0.0002684930476
0.0002595356823
0.0002256458721
8.091448876e-05
8.087523903e-05
0.0002380285343
0.0002257796216
0.000249386109
0.0002381077767
0.0002929155247
0.0002882790484
0.0002882795576
0.0002827672893
0.0002827691685
0.0002762174609
0.0002762217374
0.0002685167155
0.0002685074927
0.0002595667723
0.000259586558
0.0002494272727
8.093676702e-05
8.096378095e-05
7.444192347e-05
7.441796931e-05
0.0002258686695
8.097679424e-05
8.099565267e-05
0.0002381594627
0.000225928529
0.0002827702081
0.0002827706224
0.0002762244439
0.000276226083
0.0002685225972
0.0002685263286
0.0002596068913
0.0002595990427
0.0002494533984
0.0002494696814
0.0002381924726
7.446175546e-05
7.447660033e-05
2.530748918e-05
2.529835569e-05
2.529078777e-05
2.530209735e-05
8.101712825e-05
8.100369718e-05
7.448944224e-05
7.449910242e-05
0.0002259682188
8.102241635e-05
8.103200029e-05
0.000276226976
0.0002762273136
0.0002685286726
0.0002685300911
0.0002596118352
0.0002596149886
0.0002494858527
0.0002494796877
0.0002382128404
0.0002382248982
0.0002259930824
2.53042242e-05
2.531159726e-05
2.531483843e-05
2.530887906e-05
2.23288455e-05
2.232743978e-05
2.232258562e-05
2.232450824e-05
7.451462229e-05
7.4507882e-05
2.531255405e-05
2.53173685e-05
2.531942158e-05
2.53155331e-05
8.104196108e-05
8.103546729e-05
7.452094278e-05
7.452580407e-05
0.0002685308699
0.0002685311696
0.0002596170081
0.0002596182761
0.0002494897658
0.0002494923892
0.0002382360604
0.0002382318656
0.0002260070675
0.0002260139281
8.104766175e-05
8.104385573e-05
2.233110139e-05
2.233214859e-05
2.233474467e-05
2.233393384e-05
1.965375491e-05
1.965231241e-05
1.964872024e-05
1.96507243e-05
2.532251687e-05
2.531994746e-05
2.531792681e-05
2.532108481e-05
2.233615411e-05
2.233677469e-05
2.233833404e-05
2.233787374e-05
7.453366347e-05
7.453032856e-05
2.532161043e-05
2.532369678e-05
2.532301651e-05
2.532472369e-05
0.0002596189993
0.0002596192994
0.0002494942203
0.0002494954691
0.0002382389512
0.0002382412451
0.0002260191406
0.0002260171256
8.105001978e-05
8.104818091e-05
8.105060035e-05
8.104974762e-05
7.45381343e-05
7.453648039e-05
1.965490348e-05
1.965600286e-05
1.965778601e-05
1.965691027e-05
1.784868798e-05
1.784777224e-05
1.784491751e-05
1.784650789e-05
2.234057036e-05
2.234027265e-05
2.23391964e-05
2.233956551e-05
1.965849763e-05
1.965916317e-05
1.966009058e-05
1.965965227e-05
2.532645799e-05
2.53252782e-05
2.532420846e-05
2.532562916e-05
2.234111458e-05
2.234132741e-05
2.234175136e-05
2.234193621e-05
0.0002494962283
0.0002494965598
0.0002382431639
0.0002382446255
0.0002260212275
0.0002260236351
8.10511352e-05
8.105051656e-05
8.105016953e-05
8.105073799e-05
7.453962385e-05
7.453924804e-05
7.453982892e-05
7.453986461e-05
2.532755738e-05
2.532683476e-05
2.532616989e-05
2.53271166e-05
1.784951392e-05
1.785031779e-05
1.785162834e-05
1.785102272e-05
1.761831213e-05
1.761811264e-05
1.761498265e-05
1.761729663e-05
1.966128761e-05
1.966104054e-05
1.966042279e-05
1.966076603e-05
1.785222978e-05
1.785274728e-05
1.785322861e-05
1.785308029e-05
2.234318491e-05
2.234292501e-05
2.234231767e-05
2.234253351e-05
1.966142807e-05
1.96615271e-05
1.966157144e-05
1.966164164e-05
0.000238245532
0.0002382458909
8.105125957e-05
8.105197439e-05
8.105303384e-05
8.105234264e-05
7.454038821e-05
7.454011389e-05
7.453988879e-05
7.453990839e-05
2.532801276e-05
2.532754433e-05
2.532724763e-05
2.53278141e-05
2.53283464e-05
2.532801859e-05
2.5327792e-05
2.532818425e-05
2.234426938e-05
2.234410779e-05
2.234356714e-05
2.234380797e-05
1.761896623e-05
1.761987545e-05
1.762078348e-05
1.762057242e-05
1.452611814e-05
1.452695285e-05
1.452385651e-05
1.452691971e-05
1.78539138e-05
1.785379164e-05
1.785337318e-05
1.785357469e-05
1.762134454e-05
1.762242711e-05
1.76221333e-05
1.762255161e-05
1.966230949e-05
1.966204534e-05
1.966172286e-05
1.966186426e-05
1.785390288e-05
1.785377986e-05
1.785360893e-05
1.785348897e-05
7.454085409e-05
7.454136795e-05
7.454247081e-05
7.454194805e-05
2.532901157e-05
2.532883796e-05
2.532863144e-05
2.532883049e-05
2.532822361e-05
2.532850119e-05
2.53286647e-05
2.532842983e-05
2.234506096e-05
2.234487927e-05
2.234449654e-05
2.234464424e-05
2.234590268e-05
2.234572701e-05
2.234530633e-05
2.234549719e-05
1.966334714e-05
1.966314264e-05
1.96626013e-05
1.966290389e-05
1.452651164e-05
1.452747611e-05
1.452771304e-05
1.452811022e-05
1.197658945e-05
1.197796147e-05
1.19750679e-05
1.197837415e-05
1.762314952e-05
1.762283971e-05
1.762218971e-05
1.762260981e-05
1.452813371e-05
1.452993252e-05
1.452863538e-05
1.452976646e-05
1.785371487e-05
1.785353517e-05
1.785344939e-05
1.785344138e-05
1.762313573e-05
1.762263916e-05
1.762237238e-05
1.762208655e-05
2.532906128e-05
2.532921312e-05
2.532941835e-05
2.532929353e-05
2.532972221e-05
2.532966753e-05
2.532950242e-05
2.532959041e-05
2.234713773e-05
2.234702487e-05
2.234676827e-05
2.234689432e-05
2.234610843e-05
2.234627548e-05
2.234661106e-05
2.234646194e-05
1.966443572e-05
1.966410062e-05
1.96635537e-05
1.966380604e-05
1.966575539e-05
1.966545417e-05
1.966478285e-05
1.966513224e-05
1.785476472e-05
1.785469532e-05
1.785411593e-05
1.785449861e-05
1.197681105e-05
1.197774862e-05
1.197759014e-05