/*--------------------------------*- C++ -*----------------------------------*\
  =========                 |
  \\      /  F ield         | OpenFOAM: The Open Source CFD Toolbox
   \\    /   O peration     | Website:  https://openfoam.org
    \\  /    A nd           | Version:  8
     \\/     M anipulation  |
\*---------------------------------------------------------------------------*/






FoamFile
{
    version     2.0;
    format      ascii;
    class       volVectorField;
    location    "0";
    object      UDDES;
}
// * * * * * * * * * * * * * * * * * * * * * * * * * * * * * * * * * * * * * //

dimensions      [0 1 -1 0 0 0 0];


internalField   nonuniform List<vector> 
10597
(
( -0.00178508705 -0.003661092836 -0.0001923629898 )
( -0.001921877498 -0.003777015721 -0.0001866497623 )
( -0.001650871709 -0.003620300209 -0.0002128957422 )
( -0.001819087774 -0.00375419762 -0.0002162714372 )
( -0.00220392202 -0.003918431234 -0.0001481074723 )
( -0.002204503864 -0.003918882459 -0.000148205756 )
( -0.001397810061 -0.003451323835 -0.0002282990754 )
( -0.002149268286 -0.003978545777 -0.000199125876 )
( -0.001781245228 -0.003730531782 -0.0002255546278 )
( -0.002277942374 -0.003916003276 -0.0001256557298 )
( -0.002255425323 -0.003997914493 -0.0001711109944 )
( -0.002317476785 -0.00396378478 -0.0001314312976 )
( -0.001101411413 -0.003278682008 -0.0002373807947 )
( -0.00179323263 -0.00373897329 -0.0002252781705 )
( -0.00215211953 -0.003980848938 -0.0001990103046 )
( -0.002321250271 -0.003889335087 -0.0001070688231 )
( -0.002367278561 -0.00403416343 -0.0001400662732 )
( -0.002391955815 -0.004087598994 -0.0001636131492 )
( -0.002359949518 -0.003943759017 -0.0001136348656 )
( -0.001505322871 -0.00354829873 -0.0002411836758 )
( -0.0008663825574 -0.003149515949 -0.0002287393727 )
( -0.001788016758 -0.003734958591 -0.000225786629 )
( -0.002077264944 -0.003938299604 -0.0002130034409 )
( -0.002392519033 -0.004088480491 -0.0001636980742 )
( -0.002240857575 -0.003594377544 -8.153294766e-05 )
( -0.002420299919 -0.004011712968 -0.0001194768192 )
( -0.002455421258 -0.004102407955 -0.0001429117547 )
( -0.002282304689 -0.00364768086 -8.599561988e-05 )
( -0.001985776471 -0.003900986165 -0.0002379805373 )
( -0.001290162676 -0.003420756897 -0.000235634303 )
( -0.0006359865074 -0.003009794746 -0.0002053523494 )
( -0.002020555548 -0.003911213949 -0.0002284096554 )
( -0.002294235397 -0.004118635319 -0.0002049968753 )
( -0.002491855528 -0.00413317699 -0.0001467403054 )
( -0.002484255238 -0.004180468153 -0.0001788694062 )
( -0.002079597209 -0.003290911205 -6.979331374e-05 )
( -0.002325770445 -0.003698004643 -9.019263962e-05 )
( -0.002485857811 -0.004064050503 -0.0001230728667 )
( -0.002115002135 -0.003338068491 -7.338098658e-05 )
( -0.001998124178 -0.003910710104 -0.0002378729696 )
( -0.001065399265 -0.003267929889 -0.0002138669661 )
( -0.001990129706 -0.003903923323 -0.0002381998638 )
( -0.001679325243 -0.003662981559 -0.000240429712 )
( -0.0001978483488 -0.002714829752 -0.0001387813245 )
( -0.002332446165 -0.00418652501 -0.0002240240865 )
( -0.002484798664 -0.004180729855 -0.0001789204689 )
( -0.00251661567 -0.004097214434 -0.000127493593 )
( -0.002546435688 -0.004184908699 -0.000154581372 )
( -0.001824137173 -0.002858436899 -5.713094288e-05 )
( -0.002151112305 -0.003378927242 -7.649893814e-05 )
( -0.002363869688 -0.003725972027 -9.337146184e-05 )
( -0.001850765664 -0.002895489102 -5.977027467e-05 )
( -0.002234465443 -0.0040923669 -0.0002340356732 )
( -0.001479391009 -0.003517178586 -0.0002225194621 )
( -0.0008496128721 -0.00310707977 -0.0001821890473 )
( -0.002187353326 -0.004034717567 -0.0002404876577 )
( -0.002112587448 -0.003950756509 -0.0002400972153 )
( -0.0006419970305 -0.002940597711 -0.0001470112329 )
( 0.0001664388692 -0.002430672524 -7.944118988e-05 )
( -0.002462883247 -0.004226929042 -0.0002144163591 )
( -0.002587400377 -0.004220612347 -0.0001584733254 )
( -0.002548030578 -0.004225608893 -0.0001914195745 )
( -0.002398497891 -0.003761779517 -9.704160038e-05 )
( -0.002573593985 -0.004145199899 -0.0001324175537 )
( -0.001480715582 -0.00230454118 -4.344459012e-05 )
( -0.001880247961 -0.002927160356 -6.236521585e-05 )
( -0.00217913813 -0.003396114334 -7.945278776e-05 )
( -0.001498287078 -0.002329648705 -4.557452121e-05 )
( -0.002429435262 -0.004209777806 -0.0002282672212 )
( -0.001876319642 -0.003750071395 -0.0002270064724 )
( -0.001271632267 -0.003345262492 -0.0001925716933 )
( -0.002333097393 -0.004136421718 -0.0002381011291 )
( -0.002123893471 -0.003958060872 -0.0002399936493 )
( -0.0002905000874 -0.002619942185 -8.975463425e-05 )
( -0.001069088117 -0.003161618952 -0.0001583787525 )
( 0.0004469319829 -0.002173768589 -5.258539022e-05 )
( -0.002465849277 -0.004228583071 -0.0002142174199 )
( -0.002612676006 -0.004184059799 -0.0001366768265 )
( -0.002635452198 -0.004265339114 -0.0001614384964 )
( -0.002664241008 -0.004301585257 -0.0001779687736 )
( -0.002209473401 -0.003428979311 -8.257234003e-05 )
( -0.002437978052 -0.003805413377 -0.0001004741425 )
( -0.001075800741 -0.001667221775 -2.969811612e-05 )
( -0.001521497965 -0.002353125252 -4.764645564e-05 )
( -0.001900142641 -0.002936126664 -6.470949302e-05 )
( -0.001085718977 -0.00168137718 -3.148480755e-05 )
( -0.002545873402 -0.004279226996 -0.0002192653337 )
( -0.001676671091 -0.003571755718 -0.000200585986 )
( -0.002241793089 -0.00396478083 -0.0002262710914 )
( -0.002465793863 -0.00418262789 -0.0002328640257 )
( -0.002459711395 -0.004181030672 -0.0002333193697 )
( -0.002586728893 -0.00430062972 -0.000227244338 )
( -0.001135427738 -0.002985200379 -0.0001079291542 )
( -0.0003914914269 -0.002446814906 -6.978824968e-05 )
( -0.001481126994 -0.003376466688 -0.0001677246473 )
( 0.0005643928307 -0.00204649521 -4.856782834e-05 )
( -0.002664779546 -0.004302477464 -0.0001779826998 )
( -0.002473306609 -0.003841741476 -0.0001029858176 )
( -0.002663278021 -0.004231156316 -0.0001386647491 )
( -0.002713345923 -0.004312746227 -0.0001588003215 )
( -0.001923823962 -0.002963091712 -6.722313992e-05 )
( -0.002241177717 -0.00346585433 -8.524906298e-05 )
( -0.0006452189409 -0.0009983778 -1.709058415e-05 )
( -0.001102877548 -0.001697851811 -3.28051392e-05 )
( -0.001534975483 -0.00235694088 -4.930227442e-05 )
( -0.0006497630966 -0.001004527323 -1.800063183e-05 )
( -0.002759700874 -0.004377943929 -0.000182815289 )
( -0.002760329284 -0.004378106911 -0.0001828285021 )
( -0.002063937485 -0.003789668437 -0.0002050106123 )
( -0.002656859346 -0.004250114318 -0.0002196822752 )
( -0.00246975082 -0.004187658895 -0.0002329499694 )
( -0.002671845956 -0.004301733803 -0.0002252600971 )
( -0.002750999061 -0.004399063997 -0.000214753949 )
( -0.0008310475387 -0.002596256789 -7.311960508e-05 )
( -0.0018765243 -0.003583529498 -0.0001745071204 )
( -0.002089033835 -0.003557229415 -0.0001443591609 )
( -0.001925701159 -0.003328728722 -0.0001130615929 )
( -0.0002646119974 -0.002274735831 -6.063103501e-05 )
( 0.000732213899 -0.001818363555 -4.661655112e-05 )
( -0.00274635409 -0.004328554031 -0.0001591655455 )
( -0.002269556979 -0.003496874124 -8.723862265e-05 )
( -0.00250105653 -0.003864958417 -0.0001045014797 )
( -0.0026536691 -0.004108098336 -0.0001208622634 )
( -0.001551084104 -0.002376376418 -5.104378215e-05 )
( -0.001946982462 -0.002990993671 -6.919054431e-05 )
( -0.0003140561457 -0.0004882068024 -8.008913028e-06 )
( -0.0006603721413 -0.001014847308 -1.878485273e-05 )
( -0.001111153862 -0.001699017594 -3.393334919e-05 )
( -0.0003154060105 -0.0004902858054 -8.429443369e-06 )
( -0.002797951922 -0.004362473264 -0.0001614484063 )
( -0.002818161622 -0.004413423594 -0.0001931216684 )
( -0.002831021091 -0.004386495799 -0.0001634685032 )
( -0.002660741564 -0.004249833059 -0.0002191860549 )
( -0.002418225631 -0.003975137603 -0.0002040850668 )
( -0.002667121589 -0.004257708788 -0.0002194276749 )
( -0.002875807229 -0.004482105374 -0.0002105985477 )
( -0.002928897273 -0.004504265264 -0.0002151609224 )
( -0.002753265435 -0.00440064352 -0.0002145673061 )
( -0.001648741309 -0.002879207255 -7.352017565e-05 )
( -0.0007031913265 -0.002399968915 -6.270610174e-05 )
( -0.002256767359 -0.003778497921 -0.0001772232645 )
( -0.002470931038 -0.003731695702 -0.0001439982734 )
( -0.002318974352 -0.003495451529 -0.0001125227282 )
( -8.215637354e-05 -0.001964704134 -5.365561447e-05 )
( 0.0008289399557 -0.001614116947 -6.80254816e-05 )
( -0.002676010365 -0.004120233469 -0.0001224344451 )
( -0.001967019169 -0.003014193848 -7.069412095e-05 )
( -0.002287940588 -0.003509907983 -8.844490367e-05 )
( -0.002517415211 -0.003860443132 -0.0001051161671 )
( -0.001120327855 -0.001710900106 -3.505724453e-05 )
( -0.001565745799 -0.002394373994 -5.244140266e-05 )
( -0.0003725079005 -0.0005735757295 -8.42128793e-06 )
( -0.000706773717 -0.001078493311 -1.906691796e-05 )
( -0.002710915171 -0.004145280458 -0.0001234930241 )
( -0.002920472296 -0.00445991382 -0.0001818469464 )
( -0.002872100566 -0.004422537517 -0.0001660310518 )
( -0.002741874661 -0.004165293183 -0.0001256476389 )
( -0.002841495909 -0.004323999863 -0.0002117754921 )
( -0.00279931142 -0.004194186069 -0.0001989401644 )
( -0.002873218618 -0.004401024897 -0.0002156500123 )
( -0.002878332511 -0.004483092576 -0.0002104410669 )
( -0.003043194767 -0.0044993232 -0.0002056951053 )
( -0.00292097358 -0.004460448399 -0.0001818742894 )
( -0.001421894412 -0.002430697437 -6.201217911e-05 )
( -0.002443264239 -0.003135196865 -6.652862794e-05 )
( -0.00256897998 -0.00339582446 -8.498399256e-05 )
( -0.0005158349522 -0.002047590911 -5.868142762e-05 )
( -0.002623931039 -0.003952405881 -0.0001745549671 )
( -0.002836429747 -0.003888557199 -0.0001415352453 )
( -0.002700562123 -0.003648386803 -0.0001115951527 )
( 2.628778748e-05 -0.001691444544 -7.658354298e-05 )
( -0.00253594364 -0.003870313056 -0.0001062315787 )
( -0.001577691524 -0.002408955479 -5.357931514e-05 )
( -0.00197826745 -0.003020036733 -7.173737686e-05 )
( -0.002292437479 -0.003494341392 -8.889383753e-05 )
( -0.0006686320994 -0.001020484022 -2.003019472e-05 )
( -0.001127895899 -0.001720156753 -3.592236681e-05 )
( -0.0003918416332 -0.0006001696456 -8.561002687e-06 )
( -0.002559994813 -0.003886901308 -0.0001071701845 )
( -0.002941649407 -0.004452769179 -0.0001642171119 )
( -0.002860572422 -0.004354096949 -0.0001451544813 )
( -0.002588161966 -0.003903884441 -0.0001083599636 )
( -0.002976466436 -0.004375963472 -0.0002059552353 )
( -0.002809250494 -0.004199049436 -0.000198645881 )
( -0.003039386589 -0.004467761144 -0.0002088188921 )
( -0.003008833854 -0.00450276304 -0.0001883357327 )
( -0.003008342581 -0.004502851982 -0.0001883333462 )
( -0.003045621561 -0.004499941599 -0.0002055079676 )
( -0.003075419925 -0.004499251954 -0.0001927378617 )
( -0.002971667796 -0.00446118461 -0.0001653625222 )
( -0.002245574724 -0.002625281224 -5.34754945e-05 )
( -0.0013340367 -0.002208843362 -6.673434109e-05 )
( -0.002843154827 -0.003253295785 -6.060622036e-05 )
( -0.002954469994 -0.003524635918 -8.09719204e-05 )
( -0.0007835513097 -0.001779397251 -9.028158092e-05 )
( -0.002958531724 -0.004097571131 -0.0001681272697 )
( -0.003102813615 -0.004339839332 -0.000190731982 )
( -0.003096621484 -0.004341569729 -0.0001915329922 )
( -0.003304267768 -0.004277353641 -0.000164344412 )
( -0.003168753115 -0.004005664028 -0.0001367590594 )
( -0.003299034433 -0.0042795185 -0.0001651005296 )
( -0.00306690461 -0.003781290958 -0.0001082461749 )
( -0.002304075519 -0.00349920569 -9.010958456e-05 )
( -0.00113350735 -0.001727354247 -3.682937313e-05 )
( -0.001583959907 -0.002410720801 -5.459177191e-05 )
( -0.001974357292 -0.002997701755 -7.202025154e-05 )
( -0.0003754110076 -0.0005749746342 -8.951551536e-06 )
( -0.0006716456264 -0.001023723045 -2.052508535e-05 )
( -0.002318570158 -0.003506921232 -9.022954328e-05 )
( -0.002812997904 -0.004188636784 -0.0001273212838 )
( -0.002619568957 -0.003918118775 -0.0001097999993 )
( -0.002340958454 -0.0035184843 -9.093300469e-05 )
( -0.003093255218 -0.004433030728 -0.0002019862295 )
( -0.003125377931 -0.004493124783 -0.0002011476754 )
( -0.003057009075 -0.004495198838 -0.000170989093 )
( -0.003021247918 -0.004482411314 -0.0001690887584 )
( -0.003149212804 -0.004521546885 -0.0001823802158 )
( -0.003149646334 -0.004521996714 -0.0001823782222 )
( -0.003093803534 -0.004502723925 -0.0001714851096 )
( -0.002838927787 -0.004195381422 -0.0001290591317 )
( -0.00216424861 -0.002363501582 -5.691110346e-05 )
( -0.003153070807 -0.003063244279 -4.628617535e-05 )
( -0.0012192789 -0.001825700281 -9.00604864e-05 )
( -0.003232135205 -0.003354700049 -5.651959145e-05 )
( -0.003322371282 -0.003630495863 -7.596230716e-05 )
( -0.003104903037 -0.004345826805 -0.0001913214219 )
( -0.003282574005 -0.004375182558 -0.0001803425985 )
( -0.003470148658 -0.004288685042 -0.0001538496581 )
( -0.003307109699 -0.004284394439 -0.0001650446502 )
( -0.003487790702 -0.004135954659 -0.0001324570476 )
( -0.003409059951 -0.003878918244 -0.000102019505 )
( -0.001979030669 -0.002997435629 -7.268795162e-05 )
( -0.0006734045455 -0.001026218757 -2.111365393e-05 )
( -0.001136750216 -0.001727777068 -3.754410864e-05 )
( -0.001575683826 -0.00238720607 -5.467550363e-05 )
( -0.0003252645838 -0.000498125155 -9.628015505e-06 )
( -0.001984493574 -0.002995798131 -7.276955876e-05 )
( -0.002641535364 -0.00390895037 -0.0001099532747 )
( -0.00236813142 -0.003527507884 -9.185660747e-05 )
( -0.002000925364 -0.003001329955 -7.2893381e-05 )
( -0.003293845803 -0.004508442245 -0.0001925835531 )
( -0.003237782046 -0.004536455497 -0.0001828284876 )
( -0.003238385078 -0.004536201712 -0.0001827999804 )
( -0.003013139591 -0.004403557628 -0.0001518010686 )
( -0.002979818964 -0.004393392242 -0.000149267129 )
( -0.003149415134 -0.004506170284 -0.0001689142664 )
( -0.003174434882 -0.004495524801 -0.0001691227371 )
( -0.003049255814 -0.004413232207 -0.0001526309934 )
( -0.00266631972 -0.003916169051 -0.0001113229664 )
( -0.003007670864 -0.002495229244 -4.597823863e-05 )
( -0.002061732113 -0.001906735939 -7.221601118e-05 )
( -0.003893154906 -0.003193845041 -4.724163955e-05 )
( -0.003851517569 -0.002896873746 -4.293854727e-05 )
( -0.00359803997 -0.003432433121 -5.520546256e-05 )
( -0.003662381787 -0.003697305918 -7.159578672e-05 )
( -0.003278490622 -0.004453029949 -0.0001885074162 )
( -0.003374425462 -0.004423586652 -0.0001757671998 )
( -0.003458760213 -0.004359997343 -0.0001635133813 )
( -0.003583908081 -0.004281929694 -0.0001464519009 )
( -0.003496025922 -0.00413770834 -0.0001321572345 )
( -0.003716108855 -0.0041700406 -0.0001235617965 )
( -0.003703111084 -0.003931470215 -9.442843293e-05 )
( -0.00372174941 -0.004165224265 -0.0001226137247 )
( -0.001574335736 -0.002382158535 -5.517957834e-05 )
( -0.0003254236653 -0.0004985418636 -9.90229637e-06 )
( -0.000674792449 -0.001026543439 -2.150419823e-05 )
( -0.001127492054 -0.001707456191 -3.758021558e-05 )
( -0.001573462272 -0.002373797353 -5.494255311e-05 )
( -0.002383068204 -0.003512450494 -9.181560017e-05 )
( -0.002025648719 -0.003008322325 -7.333170652e-05 )
( -0.001584878773 -0.002374004107 -5.486045848e-05 )
( -0.00329540344 -0.004508962855 -0.0001924518001 )
( -0.003309648251 -0.004515764304 -0.0001843331411 )
( -0.003220209619 -0.00449228799 -0.0001697869884 )
( -0.003251299262 -0.004490837455 -0.0001703117596 )
( -0.002721164608 -0.00393642392 -0.0001145627757 )
( -0.002695826115 -0.003930506762 -0.0001129470038 )
( -0.003078426933 -0.004397294018 -0.000151557193 )
( -0.003093562322 -0.004376001656 -0.0001523915416 )
( -0.002733098576 -0.003921314143 -0.0001152014738 )
( -0.002403969876 -0.00351894903 -9.288491856e-05 )
( -0.002928001108 -0.001967037562 -6.026733536e-05 )
( -0.003395446111 -0.002270096214 -4.999881276e-05 )
( -0.003814245109 -0.002594664227 -4.291660298e-05 )
( -0.004217165522 -0.003201554529 -4.519648064e-05 )
( -0.003932606429 -0.003470749827 -5.507091555e-05 )
( -0.004205578007 -0.002917119768 -4.041088687e-05 )
( -0.003941955976 -0.003970512189 -9.016517288e-05 )
( -0.00393610727 -0.003976715263 -9.092023538e-05 )
( -0.00394957047 -0.00372137269 -6.872054655e-05 )
( -0.003394710831 -0.004512981512 -0.000182746895 )
( -0.00345727941 -0.004472968634 -0.0001721952431 )
( -0.003591306973 -0.004365817644 -0.0001561645477 )
( -0.003675299929 -0.004288866185 -0.0001415012375 )
( -0.003721726127 -0.00417111814 -0.0001233796793 )
( -0.003868332598 -0.004117211327 -0.0001091502563 )
( -0.001122969319 -0.001700173831 -3.783714419e-05 )
( -0.0003262372629 -0.0004993289476 -1.012271332e-05 )
( -0.0006674192846 -0.001012505265 -2.152564775e-05 )
( -0.001119031105 -0.00168887293 -3.75326199e-05 )
( -0.002036673715 -0.002992547583 -7.331967208e-05 )
( -0.001608132035 -0.002381919418 -5.507524111e-05 )
( -0.001127041294 -0.001686247298 -3.741158798e-05 )
( -0.003372765379 -0.004505572841 -0.000175139925 )
( -0.003373219399 -0.004505666904 -0.0001751098462 )
( -0.003288358916 -0.004487307277 -0.0001696190302 )
( -0.003131416161 -0.00437399419 -0.0001528381836 )
( -0.003160685766 -0.004366242327 -0.0001536811615 )
( -0.002442234429 -0.003529035253 -9.493905964e-05 )
( -0.002425305545 -0.003527882742 -9.39928068e-05 )
( -0.002728262218 -0.003874298418 -0.0001144179696 )
( -0.002731374698 -0.003847823478 -0.0001147673029 )
( -0.002444348764 -0.003505535191 -9.545541252e-05 )
( -0.002052144846 -0.002997340634 -7.395808643e-05 )
( -0.00379096088 -0.001993577462 -5.560552017e-05 )
( -0.004189783707 -0.002301123925 -4.14423921e-05 )
( -0.004193586763 -0.002612433396 -3.870972432e-05 )
( -0.004385626875 -0.003434291342 -4.832129707e-05 )
( -0.004391226918 -0.003426427953 -4.783663462e-05 )
( -0.004204789642 -0.003464520676 -5.39369139e-05 )
( -0.004466152284 -0.003191050142 -3.904666664e-05 )
( -0.0041682343 -0.00372122461 -6.668811693e-05 )
( -0.0041623055 -0.003728492185 -6.715177733e-05 )
( -0.004503379576 -0.002889113734 -3.291525354e-05 )
( -0.004467681982 -0.003183302702 -3.878747521e-05 )
( -0.0039415434 -0.00397701608 -9.07989961e-05 )
( -0.004084856715 -0.003892687149 -7.965347322e-05 )
( -0.003449889831 -0.004488824401 -0.000169721272 )
( -0.003449609736 -0.00448926026 -0.0001697835105 )
( -0.003536411095 -0.004430177622 -0.0001574497001 )
( -0.003535751952 -0.004430459812 -0.0001575388014 )
( -0.003650722792 -0.004330144264 -0.0001473211451 )
( -0.003620321397 -0.004374659155 -0.0001464826055 )
( -0.003724817419 -0.004288052209 -0.0001333672408 )
( -0.003820419312 -0.004185901489 -0.0001165169742 )
( -0.003923400305 -0.004103121813 -0.0001003159996 )
( -0.000662836479 -0.001005983329 -2.161909288e-05 )
( -0.0003212515439 -0.000490852748 -1.006852835e-05 )
( -0.000659186393 -0.0009962064214 -2.143597521e-05 )
( -0.001616881345 -0.002369570313 -5.494298603e-05 )
( -0.001147757401 -0.001695792889 -3.748940071e-05 )
( -0.0006643285742 -0.0009937512223 -2.130373105e-05 )
( -0.003340155585 -0.004472968169 -0.0001649234327 )
( -0.003365412354 -0.004455635324 -0.0001623874705 )
( -0.003200218314 -0.004363414366 -0.0001528585708 )
( -0.00274707051 -0.003831211478 -0.0001148886367 )
( -0.002776043024 -0.003823283827 -0.0001157494262 )
( -0.002073057694 -0.002996028634 -7.511494914e-05 )
( -0.002065124689 -0.003000337863 -7.459973131e-05 )
( -0.002427708823 -0.003449373879 -9.475217666e-05 )
( -0.002421491081 -0.003416818334 -9.512007819e-05 )
( -0.002068120753 -0.002968572779 -7.547181303e-05 )
( -0.001626375481 -0.002372156596 -5.523481377e-05 )
( -0.00459258398 -0.001968650613 -3.573047434e-05 )
( -0.004222038668 -0.001977927983 -4.72597676e-05 )
( -0.00455575157 -0.002284677001 -3.284153718e-05 )
( -0.004507882521 -0.002876040293 -3.266959538e-05 )
( -0.00438937638 -0.003432480153 -4.806703146e-05 )
( -0.004299273714 -0.003615545342 -5.871753456e-05 )
( -0.004478191957 -0.003337298753 -3.917545473e-05 )
( -0.004528344143 -0.003238463774 -3.430924698e-05 )
( -0.004167105537 -0.00372781069 -6.708176807e-05 )
( -0.004701539408 -0.002863294445 -2.053484604e-05 )
( -0.004608753603 -0.003077067435 -2.863775262e-05 )
( -0.004021991976 -0.003969500773 -8.480023098e-05 )
( -0.00412727613 -0.003857720876 -7.245945744e-05 )
( -0.00344221876 -0.004431799985 -0.0001559386728 )
( -0.003407996148 -0.004442372359 -0.0001593126944 )
( -0.003513506148 -0.004359113984 -0.0001427924872 )
( -0.003488633782 -0.004390201066 -0.0001484535896 )
( -0.003643167671 -0.004322807305 -0.0001322235184 )
( -0.003643537872 -0.004322313238 -0.0001321357995 )
( -0.00354072894 -0.004327088129 -0.0001339558221 )
( -0.003720667213 -0.004237751011 -0.0001193983335 )
( -0.003721074667 -0.004237406887 -0.0001193382122 )
( -0.003795769066 -0.004153126851 -0.0001046203179 )
( -0.003796224948 -0.004152365495 -0.0001045194658 )
( -0.003875911236 -0.004036543891 -8.900463581e-05 )
( -0.003875479102 -0.004037117586 -8.907612937e-05 )
( -0.0003185911628 -0.0004868127871 -1.018748844e-05 )
( -0.0003160772321 -0.0004807823861 -1.004475598e-05 )
( -0.001154176076 -0.001688308199 -3.739807289e-05 )
( -0.000679357443 -0.001002679113 -2.138361924e-05 )
( -0.0003187598486 -0.000479247421 -9.986993064e-06 )
( -0.003231952898 -0.004337166902 -0.000148834908 )
( -0.003252018942 -0.004311847966 -0.0001459749619 )
( -0.00280433544 -0.003810948459 -0.0001151519537 )
( -0.002428898821 -0.003392534563 -9.499034786e-05 )
( -0.002456009388 -0.003385019023 -9.576729644e-05 )
( -0.001631885301 -0.002360902028 -5.575889372e-05 )
( -0.001631661202 -0.00236978312 -5.551580762e-05 )
( -0.002044008579 -0.002909521107 -7.492266013e-05 )
( -0.002029169118 -0.002871958306 -7.491430006e-05 )
( -0.001623175573 -0.002334419638 -5.604124817e-05 )
( -0.001158271916 -0.001688739983 -3.741355977e-05 )
( -0.004871509969 -0.002213786822 -2.109464913e-05 )
( -0.004865319934 -0.002227875404 -2.121229227e-05 )
( -0.004831133876 -0.002519933274 -1.823814455e-05 )
( -0.004706972279 -0.00285599567 -2.011966171e-05 )
( -0.004830233753 -0.002527020639 -1.818265628e-05 )
( -0.004418001976 -0.003378263442 -3.846046093e-05 )
( -0.004324203823 -0.003562300699 -5.069521649e-05 )
( -0.004223660566 -0.003696680069 -6.104611384e-05 )
( -0.004502920434 -0.00324559072 -2.604537076e-05 )
( -0.004504145123 -0.003245140892 -2.605943519e-05 )
( -0.004704697989 -0.002862689551 -2.014513302e-05 )
( -0.004655885044 -0.003014118178 -2.179286093e-05 )
( -0.003954535816 -0.003916971385 -7.512008597e-05 )
( -0.003955040127 -0.003916022833 -7.50299514e-05 )
( -0.004040948115 -0.003777181264 -6.123377534e-05 )
( -0.004041367676 -0.003776448779 -6.117235898e-05 )
( -0.003319231328 -0.004283449613 -0.0001385690266 )
( -0.003291158006 -0.004302204121 -0.0001426841773 )
( -0.003370840102 -0.004211232997 -0.0001252634829 )
( -0.003352904459 -0.004257348366 -0.0001320337906 )
( -0.003574575996 -0.004268472083 -0.0001231005444 )
( -0.003592627356 -0.00422598701 -0.0001173844357 )
( -0.003395898268 -0.004166140221 -0.0001170192772 )
( -0.003632066306 -0.00416556932 -0.0001099932488 )
( -0.003662277712 -0.004131102934 -0.0001045915196 )
( -0.003698576707 -0.004077823367 -9.642621444e-05 )
( -0.003723965492 -0.004038228653 -9.059462172e-05 )
( -0.003789652605 -0.003911399283 -7.621007535e-05 )
( -0.003761959728 -0.003963342402 -8.1913553e-05 )
( -0.0006831436767 -0.0009991992265 -2.125595711e-05 )
( -0.0003278483928 -0.0004863536451 -1.004888873e-05 )
( -0.002813555766 -0.003769083414 -0.0001118468208 )
( -0.002829556353 -0.003748816904 -0.00010895163 )
( -0.002482562559 -0.003374249209 -9.507869981e-05 )
( -0.002030709293 -0.002842249814 -7.488247502e-05 )
( -0.002056661295 -0.002836750587 -7.516124606e-05 )
( -0.001153494813 -0.001672150567 -3.763952554e-05 )
( -0.001157959923 -0.001682913629 -3.752842895e-05 )
( -0.001596365008 -0.002279369859 -5.565874744e-05 )
( -0.001576359849 -0.002240230329 -5.557186887e-05 )
( -0.001144231996 -0.00165077392 -3.787833339e-05 )
( -0.0006836632965 -0.000998238218 -2.1185062e-05 )
( -0.005103339907 -0.002145584673 -6.680967999e-06 )
( -0.005096727051 -0.002155134687 -6.899080745e-06 )
( -0.005210904405 -0.001843746286 -7.354763056e-06 )
( -0.005000489764 -0.002387587912 -7.64052038e-06 )
( -0.004731272347 -0.002826184733 -1.083070674e-05 )
( -0.004940803163 -0.002514601685 -7.117166206e-06 )
( -0.004263788927 -0.003295697039 -2.336281614e-05 )
( -0.004264092073 -0.003294440219 -2.328104347e-05 )
( -0.004189893138 -0.003460587468 -3.718289008e-05 )
( -0.004189535975 -0.003461499 -3.725515126e-05 )
( -0.004113011993 -0.003632256296 -4.861372145e-05 )
( -0.004112666938 -0.003633428831 -4.869208351e-05 )
( -0.004339550622 -0.003112775274 -1.124162191e-05 )
( -0.004339803476 -0.003111773403 -1.117602915e-05 )
( -0.004500601906 -0.003082535695 -1.360748865e-05 )
( -0.004664238542 -0.002953779185 -1.363586398e-05 )
( -0.004597365856 -0.003034703899 -1.457285362e-05 )
( -0.00382983801 -0.003837295342 -6.847768964e-05 )
( -0.003860971425 -0.003788624657 -6.309528544e-05 )
( -0.003906562459 -0.003703189548 -5.498049723e-05 )
( -0.003935025074 -0.00364493439 -4.998407167e-05 )
( -0.002862359863 -0.003708500881 -0.0001012520515 )
( -0.002848459873 -0.003732814919 -0.0001057079062 )
( -0.002866201568 -0.003613884328 -8.907190931e-05 )
( -0.002867027419 -0.003665471915 -9.51820839e-05 )
( -0.003178471467 -0.003828836838 -9.133678395e-05 )
( -0.003422185313 -0.004039024469 -0.0001013754081 )
( -0.002873102203 -0.003551585134 -8.276406879e-05 )
( -0.003452514764 -0.003998924978 -9.482980386e-05 )
( -0.003478269093 -0.00395341171 -8.931312186e-05 )
( -0.0035045736 -0.003905816004 -8.215873822e-05 )
( -0.003521946725 -0.003849228146 -7.609210297e-05 )
( -0.00356603181 -0.003717919113 -6.298601511e-05 )
( -0.003543700324 -0.003787465394 -6.88045111e-05 )
( -0.0003290474706 -0.0004844522919 -9.937698451e-06 )
( -0.002486305311 -0.003332224675 -9.231471631e-05 )
( -0.002497029258 -0.003313328605 -8.967528993e-05 )
( -0.002083250321 -0.002831441816 -7.495557657e-05 )
( -0.001575642033 -0.002209855011 -5.529623013e-05 )
( -0.001601007301 -0.002207962098 -5.562910519e-05 )
( -0.0006759574171 -0.0009832204087 -2.129286077e-05 )
( -0.0006811906933 -0.0009921295568 -2.121029502e-05 )
( -0.00111964473 -0.001605923753 -3.762978668e-05 )
( -0.001099832472 -0.001570770051 -3.762943379e-05 )
( -0.0006688333815 -0.0009695223416 -2.142568519e-05 )
( -0.0003287188883 -0.0004833486164 -9.853187294e-06 )
( -0.005057699513 -0.0023217774 -1.104445118e-06 )
( -0.005159766413 -0.002109585796 1.509852154e-06 )
( -0.005216359627 -0.002020114567 -3.906859547e-07 )
( -0.004999842495 -0.002429618035 1.421055231e-06 )
( -0.004748086911 -0.00271917088 8.70253416e-07 )
( -0.004877551924 -0.002584028989 2.565451041e-06 )
( -0.004093843512 -0.003217919031 -1.830063775e-05 )
( -0.004122039769 -0.00315244915 -1.333500768e-05 )
( -0.004055874888 -0.003316724673 -2.662601037e-05 )
( -0.004026620649 -0.003386631608 -3.102373012e-05 )
( -0.003989873454 -0.003493848722 -3.763893983e-05 )
( -0.003968121484 -0.00355664338 -4.244868614e-05 )
( -0.004159866832 -0.003043008503 -6.325072718e-06 )
( -0.004184307065 -0.002970041707 -1.895178457e-06 )
( -0.004401156213 -0.002931452356 -7.318292319e-07 )
( -0.004401898012 -0.002930281684 -6.818133897e-07 )
( -0.004680778366 -0.002797353547 -5.139384029e-07 )
( -0.004550041631 -0.002878804691 -1.658482915e-06 )
( -0.003601098899 -0.00365578779 -5.670831888e-05 )
( -0.003632022999 -0.003593323054 -5.124311429e-05 )
( -0.003667670302 -0.003529575421 -4.492064545e-05 )
( -0.003692453727 -0.003455316182 -3.959442984e-05 )
( -0.002509293146 -0.003264575731 -8.248599624e-05 )
( -0.002505878219 -0.003293088404 -8.656445425e-05 )
( -0.002486536046 -0.003156328574 -7.224619185e-05 )
( -0.002500799252 -0.003214532742 -7.734928658e-05 )
( -0.002872340847 -0.003470962867 -7.605316205e-05 )
( -0.002885934431 -0.003424441442 -7.13245463e-05 )
( -0.002490317915 -0.00309294858 -6.718777877e-05 )
( -0.002900232328 -0.003383362899 -6.639701314e-05 )
( -0.002914548386 -0.00334348157 -6.211351138e-05 )
( -0.002915310441 -0.003286063205 -5.673638952e-05 )
( -0.00291351648 -0.003224627115 -5.178646097e-05 )
( -0.002910061972 -0.003077320522 -4.189088941e-05 )
( -0.002898120089 -0.003144407645 -4.629267642e-05 )
( -0.002084314823 -0.00279445271 -7.274834934e-05 )
( -0.002088617999 -0.002776514739 -7.049136184e-05 )
( -0.001627606107 -0.002210636856 -5.542987492e-05 )
( -0.001099897549 -0.001544932835 -3.752666817e-05 )
( -0.00112366653 -0.001547536813 -3.763919449e-05 )
( -0.0003230747243 -0.0004736394912 -9.843068256e-06 )
( -0.0003266811837 -0.0004790933745 -9.873379895e-06 )
( -0.0006510769017 -0.0009396537207 -2.130457324e-05 )
( -0.0006367606111 -0.0009146152879 -2.124273124e-05 )
( -0.00031927909 -0.0004670723283 -9.902617421e-06 )
( -0.005072912201 -0.002269480843 5.076703474e-06 )
( -0.005173634738 -0.002017108956 1.530645932e-05 )
( -0.00528467074 -0.001865762053 1.562156467e-05 )
( -0.004994984716 -0.002388670342 6.179868706e-06 )
( -0.004744764417 -0.002581946552 8.450784662e-06 )
( -0.004865350667 -0.002518448746 6.985356777e-06 )
( -0.0038136933 -0.003044871381 -1.126076404e-05 )
( -0.003842358012 -0.002963159466 -6.03307808e-06 )
( -0.003778679529 -0.003124186769 -1.753873221e-05 )
( -0.00374868582 -0.003210986499 -2.272925121e-05 )
( -0.003726691473 -0.00329600554 -2.794231477e-05 )
( -0.003713947721 -0.00337984506 -3.349490362e-05 )
( -0.003869017586 -0.002878792118 -7.945699281e-07 )
( -0.003529065754 -0.002547812881 5.92520928e-06 )
( -0.004202895798 -0.002871143166 3.772525361e-06 )
( -0.004237270914 -0.002806518925 6.681888408e-06 )
( -0.004609927069 -0.00266524381 9.966657672e-06 )
( -0.004609717987 -0.002666637069 9.921544915e-06 )
( -0.004343959969 -0.002728909953 9.58585133e-06 )
( -0.002941375598 -0.003021182027 -3.742143963e-05 )
( -0.00297695375 -0.00297535467 -3.366121018e-05 )
( -0.002998505253 -0.002917873207 -2.928983304e-05 )
( -0.003011714667 -0.002857151907 -2.519296322e-05 )
( -0.002080910839 -0.002720263787 -6.447085616e-05 )
( -0.002087866422 -0.002752613742 -6.782425044e-05 )
( -0.002035735175 -0.002603374654 -5.640090967e-05 )
( -0.002061504638 -0.002666372107 -6.054552432e-05 )