/*--------------------------------*- C++ -*----------------------------------*\
  =========                 |
  \\      /  F ield         | OpenFOAM: The Open Source CFD Toolbox
   \\    /   O peration     | Website:  https://openfoam.org
    \\  /    A nd           | Version:  8
     \\/     M anipulation  |
\*---------------------------------------------------------------------------*/






FoamFile
{
    version     2.0;
    format      ascii;
    class       volScalarField;
    location    "0";
    object      V;
}
// * * * * * * * * * * * * * * * * * * * * * * * * * * * * * * * * * * * * * //

dimensions      [0 3 0 0 0 0 0];


internalField   nonuniform List<scalar> 
10597
(
2.200770866e-05
1.432823077e-05
2.257896872e-05
2.472793163e-05
1.044424681e-05
1.142211193e-05
2.544854361e-05
1.984722004e-05
2.351572559e-05
8.85109509e-06
1.390827519e-05
9.476149216e-06
7.487052402e-05
2.298107894e-05
1.125355642e-05
7.486663642e-06
1.124999633e-05
8.929453886e-06
7.869929846e-06
2.35151243e-05
7.38601351e-05
2.333599514e-05
2.24708947e-05
9.954501804e-06
6.322636392e-06
9.139442877e-06
7.775686937e-06
6.541746023e-06
2.429523643e-05
7.953749415e-05
7.779882504e-05
2.250490297e-05
1.445300507e-05
8.476778684e-06
1.074195954e-05
5.332684338e-06
7.453286421e-06
6.721554863e-06
5.441778561e-06
2.500592e-05
7.985444134e-05
2.44369951e-05
2.552431261e-05
0.0002492860578
2.47003681e-05
1.167696838e-05
7.198243148e-06
9.055871929e-06
4.492916497e-06
6.098534648e-06
5.776924975e-06
4.529622053e-06
2.166751361e-05
7.761924015e-05
7.92551629e-05
2.411411171e-05
2.614222466e-05
7.97213487e-05
0.0002346798656
1.99037766e-05
9.645020746e-06
1.415871607e-05
6.098608442e-06
7.624193813e-06
3.782032198e-06
5.004494229e-06
4.942320281e-06
3.772368307e-06
2.246107522e-05
7.466536055e-05
7.84496055e-05
2.278580144e-05
2.53594779e-05
0.000239923986
8.280630792e-05
0.0002468827638
1.114081869e-05
7.979423546e-06
1.14219396e-05
9.066524604e-06
5.157306268e-06
6.411744945e-06
3.181279806e-06
4.11697662e-06
4.21273467e-06
3.143121273e-06
1.454185563e-05
7.400952341e-05
2.345653092e-05
2.336319898e-05
2.349686903e-05
2.490569888e-05
0.0002342935397
0.0002409615983
8.001919022e-05
0.0002526244983
1.00468361e-05
6.610444156e-06
9.257520598e-06
7.866267304e-06
4.354589485e-06
5.387167544e-06
2.674311677e-06
3.394111189e-06
3.580153867e-06
2.619827263e-06
1.076883844e-05
1.170010735e-05
7.89577513e-05
2.418142053e-05
2.298563627e-05
2.247167242e-05
1.994319734e-05
0.0002266156323
7.347855389e-05
7.447256793e-05
7.301308335e-05
0.0002447547918
0.0002578528842
8.538039615e-06
5.482650621e-06
7.534491212e-06
6.782405005e-06
3.672154178e-06
4.522875985e-06
2.246986695e-06
2.803289048e-06
3.035180036e-06
2.184352496e-06
9.073556339e-06
1.415530966e-05
9.670330365e-06
2.423061344e-05
2.510364732e-05
2.487322109e-05
2.24985096e-05
2.465752729e-05
1.130000818e-05
0.0002384109695
0.0002380979472
7.992220664e-05
7.163378848e-05
7.488084951e-05
0.0002505719705
0.0002628050956
7.239901475e-06
4.551703243e-06
6.154558494e-06
5.818964367e-06
3.093422832e-06
3.794854718e-06
2.318917675e-06
2.568054434e-06
7.636416772e-06
9.052986231e-06
1.142025112e-05
8.00433946e-06
2.389594918e-05
2.565149488e-05
2.156519768e-05
1.445700522e-05
1.987262902e-05
1.004847459e-05
0.0002231648491
7.46361936e-05
7.500429086e-05
0.0002418201461
7.314312522e-05
7.686941947e-05
7.628279266e-05
0.0002554461724
6.128074283e-06
3.781942243e-06
5.043361222e-06
4.972575608e-06
2.603638461e-06
3.182350326e-06
2.169278378e-06
6.420825521e-06
7.867902489e-06
9.255887728e-06
6.633558086e-06
2.259660132e-05
2.523327131e-05
2.234151444e-05
1.17120205e-05
1.080632941e-05
1.112318368e-05
1.416564763e-05
8.54702311e-06
0.0002255177279
0.0002342515625
7.675546165e-05
7.37013328e-05
0.000247507254
2.285706982e-05
2.268718898e-05
2.318419173e-05
2.440276564e-05
2.453971163e-05
2.339060176e-05
7.311558988e-05
5.179292813e-06
3.144541915e-06
4.144176673e-06
4.235670666e-06
2.189823695e-06
2.667544033e-06
5.394503976e-06
6.789627667e-06
7.532016097e-06
5.503285947e-06
2.46192875e-05
1.443999666e-05
9.677285244e-06
9.102574864e-06
9.059163437e-06
1.0006247e-05
1.143284393e-05
7.249994149e-06
0.0002257015226
0.0002088398972
0.0002388277101
7.440354691e-05
6.924633938e-05
2.246526447e-05
2.163874379e-05
2.325239784e-05
2.418503536e-05
2.47039205e-05
7.050136003e-05
4.372042093e-06
2.616096751e-06
3.413386981e-06
3.598556419e-06
2.235205494e-06
4.529281485e-06
5.826490732e-06
6.150852939e-06
4.569636282e-06
1.955234515e-05
1.06793885e-05
1.151749051e-05
8.007356999e-06
7.657071504e-06
7.876809099e-06
8.520598509e-06
9.269366563e-06
6.136046708e-06
0.0002186697257
0.0002288657892
6.685711703e-05
7.210001724e-05
6.772688664e-05
7.383957931e-05
2.166324667e-05
2.334711703e-05
2.485135762e-05
2.090610467e-05
2.339089729e-05
2.09265081e-05
2.219777038e-05
2.127928263e-05
3.686865342e-06
2.17752908e-06
2.817183716e-06
3.050749607e-06
3.800774009e-06
4.977780944e-06
5.038355421e-06
3.797216615e-06
1.092094327e-05
1.38033348e-05
9.01951662e-06
9.556431085e-06
6.633532569e-06
6.433933775e-06
6.801147457e-06
7.235177201e-06
7.545529493e-06
5.183746017e-06
0.0002118958516
7.034692613e-05
7.390874286e-05
6.914439041e-05
7.667222397e-05
6.922399022e-05
2.200272552e-05
2.154952434e-05
2.271567541e-05
1.331463962e-05
1.522730555e-05
1.942657063e-05
2.133105026e-05
2.364082481e-05
2.291954664e-05
3.106451298e-06
2.32915311e-06
2.581804713e-06
3.188005745e-06
4.237516952e-06
4.137990428e-06
3.157347763e-06
8.756426625e-06
9.619808278e-06
1.117691951e-05
7.604157028e-06
7.93528354e-06
5.500982822e-06
5.401196306e-06
5.840148471e-06
6.129622072e-06
6.163889205e-06
4.372650068e-06
0.0002136980268
6.934117212e-05
6.738753977e-05
2.129941096e-05
2.069544783e-05
2.232885797e-05
2.259854002e-05
2.175747109e-05
2.188373977e-05
2.242295312e-05
2.306708407e-05
2.484764076e-05
2.354888801e-05
1.07313007e-05
1.020329667e-05
1.198371872e-05
1.129041872e-05
1.069379332e-05
1.416704813e-05
1.299918274e-05
1.375059554e-05
1.418999697e-05
2.61558227e-06
2.1817879e-06
2.673026111e-06
3.596911601e-06
3.406239729e-06
2.626694969e-06
7.642430313e-06
8.25316546e-06
9.087828781e-06
6.401576253e-06
6.593348146e-06
4.565692243e-06
4.530767266e-06
4.992974542e-06
5.183269458e-06
5.050620582e-06
3.683888181e-06
6.546070989e-05
7.03063631e-05
7.225733437e-05
6.831951344e-05
2.387528612e-05
2.321381444e-05
2.147611064e-05
2.001026022e-05
2.518470923e-05
2.13798057e-05
2.125994684e-05
1.43884343e-05
1.44237911e-05
9.012310329e-06
8.677809606e-06
9.877589298e-06
9.431241784e-06
8.77933183e-06
9.443420709e-06
1.142253401e-05
9.759496332e-06
1.003976819e-05
1.03258595e-05
1.049785225e-05
1.081281413e-05
1.074574049e-05
2.200997384e-06
2.240532527e-06
3.045961445e-06
2.809329178e-06
2.186204107e-06
6.617804016e-06
7.051118245e-06
7.416084402e-06
5.382722746e-06
5.481287531e-06
3.792150651e-06
3.798205712e-06
4.253640626e-06
4.376272222e-06
4.149336438e-06
3.10043504e-06
6.639627503e-05
2.225202307e-05
2.29163657e-05
2.155193014e-05
2.231530675e-05
1.343210739e-05
1.406803793e-05
1.43947305e-05
1.230823419e-05
1.981110885e-05
2.199612202e-05
1.913291251e-05
1.088047446e-05
1.085219657e-05
1.089630918e-05
1.082511241e-05
7.561764973e-06
7.359697992e-06
8.153127702e-06
7.875107794e-06
7.661830198e-06
8.123788789e-06
9.251734708e-06
8.368370596e-06
8.550774558e-06
8.764623617e-06
8.875137285e-06
9.120483472e-06
9.073163738e-06
2.574431868e-06
2.320848767e-06
5.695281442e-06
6.003863078e-06
6.071000181e-06
4.521546087e-06
4.558847823e-06
3.15157565e-06
3.182415972e-06
3.613427064e-06
3.690225508e-06
3.416605465e-06
2.607174612e-06
2.070935641e-05
2.103525809e-05
2.125382083e-05
2.06479746e-05
1.950350587e-05
2.02451107e-05
1.034536876e-05
1.002509362e-05
1.052671719e-05
1.079874744e-05
1.081052001e-05
1.089737944e-05
9.853920662e-06
9.409069911e-06
9.982842128e-06
2.160005617e-05
1.772378134e-05
9.168314428e-06
9.154887847e-06
9.190593274e-06
9.150755231e-06
6.339897558e-06
6.227530712e-06
6.737768592e-06
6.57358053e-06
6.635026925e-06
6.956996838e-06
7.52358131e-06
7.145613476e-06
7.258868208e-06
7.417558043e-06
7.48471911e-06
7.672177997e-06
7.640977557e-06
2.172454703e-06
4.877414563e-06
5.098175743e-06
4.983456887e-06
3.795035368e-06
3.793084072e-06
2.620542143e-06
2.665297234e-06
3.062417962e-06
3.108460481e-06
2.818714171e-06
2.190845868e-06
2.157276754e-05
1.849962721e-05
1.937956194e-05
1.919156974e-05
1.84624481e-05
1.733939594e-05
8.775284388e-06
8.560144274e-06
8.927349461e-06
9.112033505e-06
9.141268302e-06
9.207141818e-06
8.418964743e-06
8.140023637e-06
9.107756072e-06
8.265207652e-06
1.259033886e-05
1.276917177e-05
7.705659899e-06
7.701315708e-06
7.729815498e-06
7.709268436e-06
5.312147006e-06
5.259666514e-06
5.573717393e-06
5.485666129e-06
5.711056344e-06
5.936128036e-06
6.139686779e-06
6.081002079e-06
6.145858891e-06
6.262527605e-06
6.299430851e-06
6.439686734e-06
6.421247468e-06
4.160640428e-06
4.31945161e-06
4.100338028e-06
3.18309477e-06
3.156954249e-06
2.17991989e-06
2.231394338e-06
2.59047829e-06
2.616134073e-06
2.329287449e-06
2.064985154e-05
1.504459879e-05
1.870841939e-05
1.861868839e-05
9.169221052e-06
1.409102399e-05
7.419544329e-06
7.280147741e-06
7.543415762e-06
7.666055003e-06
7.703203898e-06
7.753455225e-06
7.167043701e-06
7.00221072e-06
7.913880879e-06
7.341802017e-06
9.447247724e-06
1.04594633e-05
1.050858846e-05
6.462801713e-06
6.463781945e-06
6.486238089e-06
6.477204005e-06
4.448700749e-06
4.435390542e-06
4.614679621e-06
4.576766214e-06
4.892112304e-06
5.05013293e-06
5.025581536e-06
5.160876005e-06
5.19229235e-06
5.277041298e-06
5.293126368e-06
5.395527156e-06
5.386910179e-06
3.537972934e-06
3.652976779e-06
3.380492919e-06
2.668320948e-06
2.628212905e-06
2.187831883e-06
2.200197507e-06
1.068884426e-05
1.251657197e-05
1.468032908e-05
1.424650303e-05
8.729172668e-06
7.793112269e-06
1.166907808e-05
6.256941061e-06
6.171677512e-06
6.355345454e-06
6.434135274e-06
6.473416709e-06
6.511964758e-06
6.083485479e-06
5.996198676e-06
6.831981407e-06
6.445525978e-06
8.217454921e-06
8.841298951e-06
8.667481594e-06
5.411170399e-06
5.415063306e-06
5.432533464e-06
5.43006947e-06
3.724003663e-06
3.735548248e-06
3.823376416e-06
3.817741116e-06
4.174433687e-06
4.286052087e-06
4.124421658e-06
4.370215954e-06
4.378938109e-06
4.439528012e-06
4.441575821e-06
4.514073203e-06
4.512798821e-06
3.000756309e-06
3.084685048e-06
2.791792308e-06
2.235749576e-06
2.188522387e-06
1.019450937e-05
8.621594571e-06
1.057803388e-05
1.208462989e-05
1.170575089e-05
7.679732213e-06
7.090646002e-06
9.916636784e-06
5.265353731e-06
5.218365157e-06
5.341693403e-06
5.389711284e-06
5.427785224e-06
5.457510447e-06
5.151481097e-06
5.116028464e-06
5.867703849e-06
5.608193224e-06
7.098281478e-06
7.458873592e-06
7.162576879e-06
4.524352766e-06
4.529638879e-06
4.543054646e-06
4.544077122e-06
3.116253417e-06
3.142833225e-06
3.169652764e-06
3.184097816e-06
3.550927115e-06
3.63041183e-06
3.392459544e-06
3.693923906e-06
3.687640227e-06
3.730028509e-06
3.722887945e-06
3.772104235e-06
3.776140412e-06
2.539764042e-06
2.60156526e-06
2.308962778e-06
8.813252984e-06
7.808334613e-06
8.910263848e-06
9.959637e-06
9.635273122e-06
6.696699239e-06
6.338780762e-06
8.398289982e-06
4.423265197e-06
4.402946955e-06
4.481052864e-06
4.507687849e-06
4.542772311e-06
4.565805989e-06
4.353787774e-06
4.352173567e-06
5.018793137e-06
4.845739983e-06
6.098011894e-06
6.282527093e-06
5.928594733e-06
3.778556333e-06
3.784304231e-06
3.794461255e-06
3.797096802e-06
2.606919025e-06
2.641868481e-06
2.629019641e-06
2.655278116e-06
3.012884791e-06
3.070085531e-06
2.795755334e-06
3.117593592e-06
3.101769451e-06
3.130523998e-06
3.1176386e-06
3.148997515e-06
3.15671665e-06
2.145887327e-06
2.191855575e-06
7.566011714e-06
6.944771575e-06
7.48551668e-06
8.216450452e-06
7.942985979e-06
5.799193467e-06
5.593383305e-06
7.092600467e-06
3.710600696e-06
3.7084943e-06
3.753154566e-06
3.765135742e-06
3.796419834e-06
3.814347682e-06
3.67374583e-06
3.693454156e-06
4.278431542e-06
4.16397399e-06
5.215824959e-06
5.284739267e-06
4.91399411e-06
3.152740149e-06
3.158402579e-06
3.165969151e-06
3.169120434e-06
2.180299635e-06
2.219156706e-06
2.181514134e-06
2.214044891e-06
2.551064659e-06
2.592770971e-06
2.307768391e-06
2.627918217e-06
2.60640865e-06
2.625026028e-06
2.608819378e-06
2.62669733e-06
2.636822898e-06
6.459675234e-06
6.09507256e-06
6.275074396e-06
6.784002813e-06
6.556263612e-06
4.994549073e-06
4.887182153e-06
5.976356758e-06
3.109146567e-06
3.11911801e-06
3.139439148e-06
3.141573565e-06
3.16883704e-06
3.182847861e-06
3.095852022e-06
3.128250523e-06
3.637428522e-06
3.562453269e-06
4.445568858e-06
4.440599815e-06
4.077806654e-06
2.62854556e-06
2.633822324e-06
2.639349784e-06
2.642410135e-06
2.156355111e-06
2.187245094e-06
2.212879748e-06
2.1883727e-06
2.199523215e-06
2.181682696e-06
2.189569797e-06
2.201121501e-06
5.491088558e-06
5.295898868e-06
5.251179746e-06
5.605186359e-06
5.417443669e-06
4.2827606e-06
4.2376741e-06
5.026499715e-06
2.602696288e-06
2.620326343e-06
2.623295865e-06
2.61900331e-06
2.642365851e-06
2.65335493e-06
2.606034729e-06
2.645238175e-06
3.085628477e-06
3.0370734e-06
3.778248387e-06
3.727957848e-06
3.387266408e-06
2.190114225e-06
2.194860571e-06
2.198799951e-06
2.201465935e-06
4.651438641e-06
4.566068603e-06
4.388095992e-06
4.633902901e-06
4.480467155e-06
3.659467635e-06
3.65251377e-06
4.22122757e-06
2.177027854e-06
2.199162614e-06
2.19009837e-06
2.181795456e-06
2.20155936e-06
2.21020602e-06
2.191747691e-06
2.233808316e-06
2.612785025e-06
2.581763809e-06
3.203620239e-06
3.127367682e-06
2.816021633e-06
3.929077714e-06
3.91307193e-06
3.662601481e-06
3.832791161e-06
3.708344442e-06
3.117930853e-06
3.133174993e-06
3.540574608e-06
2.209091787e-06
2.189588514e-06
2.711200413e-06
2.6219304e-06
2.342768404e-06
3.311309909e-06
3.337430777e-06
3.054140734e-06
3.171464542e-06
3.07122153e-06
2.650314219e-06
2.67740392e-06
2.966649017e-06
2.290863865e-06
2.197066442e-06
2.785472374e-06
2.835582228e-06
2.544772037e-06
2.625136726e-06
2.544906309e-06
2.248501425e-06
2.280852395e-06
2.483671817e-06
2.339567056e-06
2.401766177e-06
2.401821155e-06
2.560348026e-06
2.851461601e-06
2.796534855e-06
3.006488814e-06
3.379235229e-06
2.894547459e-06
3.329642146e-06
3.517729544e-06
3.995935375e-06
3.475121854e-06
2.991987302e-06
3.957518015e-06
4.097582212e-06
4.712467776e-06
4.167791957e-06
3.602238418e-06
3.058882163e-06
4.693812673e-06
4.746363087e-06
5.538995626e-06
4.992157556e-06
4.333426564e-06
3.689204677e-06
3.094374949e-06
5.552549938e-06
5.458923628e-06
6.483536263e-06
5.970249737e-06
5.207854932e-06
4.446340101e-06
3.737583953e-06
3.110308856e-06
6.547155288e-06
6.221237509e-06
7.549727123e-06
7.126296997e-06
6.251133687e-06
5.354348485e-06
4.511873326e-06
3.760734831e-06
3.119568876e-06
7.688832402e-06
7.005327451e-06
8.73336994e-06
8.486107543e-06
7.49224986e-06
6.441151048e-06
5.44271362e-06
4.545046107e-06
3.774356852e-06
3.122518126e-06
8.983946858e-06
7.76178347e-06
1.001716898e-05
1.007583428e-05
8.9633661e-06
7.738788129e-06
6.559923774e-06
5.489791325e-06
4.564864352e-06
3.779949024e-06
3.123344626e-06
1.042992689e-05
8.408792504e-06
1.009095614e-05
1.191977646e-05
1.06991628e-05
9.283475649e-06
7.898108763e-06
6.626295842e-06
5.518408121e-06
4.574440591e-06
3.782507294e-06
3.123655751e-06
1.200896244e-05
1.356927246e-05
1.961315603e-05
1.403669197e-05
1.273543177e-05
1.11152976e-05
9.49696485e-06
7.99127811e-06
6.667413187e-06
5.533924503e-06
4.579716777e-06
3.784060459e-06
3.124045001e-06
1.481617334e-05
1.655771313e-05
1.998642885e-05
1.510648787e-05
1.327728387e-05
1.140132007e-05
9.627411137e-06
8.050173828e-06
6.691716795e-06
5.543379738e-06
4.583251407e-06
3.785418973e-06
3.124272626e-06
1.562831047e-05
1.693724653e-05
2.00534225e-05
2.205358798e-05
1.581349177e-05
1.366070219e-05
1.158373014e-05
9.711627167e-06
8.087406514e-06
6.707509203e-06
5.549999722e-06
4.586146039e-06
3.786386089e-06
3.124198501e-06
1.616814023e-05
1.741598143e-05
1.969152137e-05
2.234509146e-05
6.462659581e-05
1.632810507e-05
1.391572699e-05
1.170406919e-05
9.767812683e-06
8.112713408e-06
6.718852728e-06
5.555275586e-06
4.588291472e-06
3.786855079e-06
3.124565876e-06
1.656364953e-05
1.785391513e-05
1.992757238e-05
2.241223487e-05
6.665101145e-05
1.668487828e-05
1.408769829e-05
1.178796767e-05
9.807301435e-06
8.131203966e-06
6.727763934e-06
5.559254755e-06
4.589646118e-06
3.787727325e-06
3.124601001e-06
1.686768467e-05
1.821909896e-05
2.029491913e-05
2.269485475e-05
6.849829027e-05
7.3873516e-05
1.693079552e-05
1.421205179e-05
1.184848582e-05
9.836514728e-06
8.145604611e-06
6.734550661e-06
5.562009148e-06
4.591300364e-06
3.788130065e-06
3.124732626e-06
1.710099688e-05
1.851805609e-05
2.064765475e-05
2.296325045e-05
7.466008977e-05
2.338197342e-05
7.001728941e-05
0.0002094797895
1.711414709e-05
1.430363533e-05
1.189368786e-05
9.859140186e-06
8.156640585e-06
6.739472302e-06
5.564854423e-06
4.592290556e-06
3.788580027e-06
3.124770376e-06
1.87625648e-05
1.727969418e-05
2.097050878e-05
7.629565638e-05
2.366250887e-05
7.132761508e-05
2.400453464e-05
0.0002145178526
0.0002226711887
1.725149719e-05
1.43725699e-05
1.192856508e-05
9.876554363e-06
8.164870737e-06
6.744111171e-06
5.566759784e-06
4.593238136e-06
3.788870149e-06
3.124679376e-06
2.123351977e-05
1.895836346e-05
1.741885059e-05
7.723386764e-05
2.445602076e-05
7.228711246e-05
2.419577069e-05
0.0002187934199
0.0002264538479
0.0002322588731
1.735553972e-05
1.442562195e-05
1.195549446e-05
9.889781875e-06
8.172188096e-06
6.747417316e-06
5.568469874e-06
4.593926736e-06
3.788969609e-06
3.124854126e-06
2.146072215e-05
1.911577851e-05
1.752814721e-05
7.837098768e-05
2.457447273e-05
2.163739869e-05
7.301140234e-05
2.477034797e-05
7.90134885e-05
0.0002218825792
0.0002301812139
0.0002372045081
0.0002429825287
1.743546824e-05
1.446668195e-05
1.197621431e-05
9.901076046e-06
8.177611162e-06
6.750279028e-06
5.569772227e-06
4.594335646e-06
3.789346188e-06
3.124945376e-06
1.924096485e-05
1.761425331e-05
2.179107299e-05
2.498364203e-05
7.351821277e-05
2.483447499e-05
2.190655369e-05
7.966636121e-05
0.0002239162572
0.0002331510577
8.0061394e-05
0.0002408179757
0.0002469334405
0.0002520136025
1.749744715e-05
1.449857495e-05
1.199338811e-05
9.909671514e-06
8.182195731e-06
6.752512136e-06
5.570667483e-06
4.595015384e-06
3.789598254e-06
3.124719751e-06
1.934218759e-05
1.768252053e-05
2.501447804e-05
2.208469879e-05
2.512955037e-05
7.389375085e-05
2.200969508e-05
8.066943865e-05
0.0002252292159
0.0002353370965
8.041966066e-05
0.000243743236
0.0002505488546
0.0002559416512
0.000260007386
1.754593177e-05
1.452441462e-05
1.200670848e-05
9.916815782e-06
8.185824915e-06
6.754154916e-06
5.571797351e-06
4.59551262e-06
3.789459819e-06
3.124542876e-06
1.942262841e-05
1.773679362e-05
2.215482396e-05
1.948820572e-05
2.220388709e-05
2.513950413e-05
2.52298107e-05
7.41639797e-05
8.086697635e-05
7.436729253e-05
0.0002368670114
8.103286582e-05
0.0002260810049
0.0002459950331
0.0002534520419
0.000259348639
0.0002639070321
0.0002671641327
1.758451699e-05
1.454473871e-05
1.201763639e-05
9.922522063e-06
8.188599714e-06
6.75594709e-06
5.572661909e-06
4.595528751e-06
3.789360145e-06
3.125556751e-06
1.778031325e-05
1.954042309e-05
1.958358519e-05
2.225234374e-05
2.522884476e-05
2.228491877e-05
2.530053254e-05
7.452158947e-05
2.535142114e-05
2.529386978e-05
0.0002476547723
0.0002379126898
7.46392413e-05
8.114433341e-05
0.0002266384429
8.125768484e-05
0.0002557299727
0.0002621924893
0.0002672104663
0.0002709472959
1.761518942e-05
1.45612396e-05
1.202641614e-05
9.926992921e-06
8.191360991e-06
6.757355779e-06
5.572933879e-06
4.595563887e-06
3.790630004e-06
3.125192876e-06
1.781530825e-05
1.961809673e-05
2.23193393e-05
1.96471403e-05
2.234152234e-05
2.538896442e-05
2.534252059e-05
2.238210964e-05
2.236659674e-05
0.0002574558824
0.0002488380115
0.0002386193337
2.537963463e-05
7.473327122e-05
2.541727648e-05
0.0002270050689
8.13999767e-05
8.13219975e-05
7.480491274e-05
0.0002644532731
0.000269947795
0.0002741290629
1.763988026e-05
1.457455057e-05
1.203341074e-05
9.93116637e-06
8.193568585e-06
6.758035322e-06
5.573190034e-06
4.597151297e-06
3.790283476e-06
3.124633876e-06
1.784372082e-05
1.96705265e-05
1.786682731e-05
1.969062592e-05
2.241199719e-05
2.240084494e-05
1.972123721e-05
1.97069261e-05
0.0002661946861
0.0002587223543
0.0002496624052
0.0002390934907
2.242626776e-05
2.540832486e-05
2.543884735e-05
2.243445072e-05
0.0002272463893
8.149099388e-05
8.143767866e-05
7.490937802e-05
7.486447367e-05
2.545562346e-05
2.543087316e-05
0.0002721479246
0.0002767483321
1.765985251e-05
1.458528097e-05
1.203963493e-05
9.934542624e-06
8.194880815e-06
6.758640179e-06
5.575170868e-06
4.596860152e-06
3.789697754e-06
3.124419876e-06
1.788587377e-05
1.790157856e-05
1.974337122e-05
1.973292368e-05
1.792566094e-05
1.791470892e-05
0.0002738609106
0.0002674966037
0.0002596269404
0.000250227321
0.0002394095909
1.975191496e-05
2.244546144e-05
2.245157886e-05
1.975966305e-05
0.0002274049586
8.154943499e-05
8.151333759e-05
7.497624272e-05
7.494778811e-05
2.547900868e-05
2.546275183e-05
2.544856841e-05
2.546862933e-05
2.246479372e-05
2.246017304e-05
0.0002788537494
1.767608992e-05
1.459448081e-05
1.20447148e-05
9.936818822e-06
8.196024349e-06
6.761108104e-06
5.574995804e-06
4.596276928e-06
3.789505464e-06
3.125522876e-06
1.768960556e-05
1.794289277e-05
1.793501298e-05
1.770987607e-05
1.770075224e-05
0.0002805026284
0.000275157524
0.0002684438387
0.000260258994
0.0002506092999
0.0002396188662
1.794958903e-05
1.976602888e-05
1.977188751e-05
1.79551869e-05
0.0002275089297
8.158713745e-05
8.156285642e-05
7.501918594e-05
7.500105654e-05
2.549368029e-05
2.548308864e-05
2.547400839e-05
2.54871557e-05
2.248331355e-05
2.248047543e-05
2.247152351e-05
2.247509009e-05
1.978110769e-05
1.977668306e-05
1.460203489e-05
1.204844289e-05
9.938780546e-06
8.199092402e-06
6.761142024e-06
5.574464546e-06
4.596134673e-06
3.790837201e-06
3.125576501e-06
1.772476544e-05
1.771760496e-05
1.460793411e-05
0.0002817605768
0.0002761134418
0.000269116622
0.0002606926194
0.0002508645467
0.0002397564237
1.773005749e-05
1.796011481e-05
1.796437972e-05
1.773429497e-05
8.15953431e-05
8.161158751e-05
7.504704125e-05
7.503533736e-05
2.550296146e-05
2.549606991e-05
2.549024249e-05
2.549878602e-05
2.249511341e-05
2.249335232e-05
2.24876396e-05
2.248989663e-05
1.979388598e-05
1.979107163e-05
1.978473839e-05
1.978817686e-05
1.797101718e-05
1.796801436e-05
1.205163321e-05
9.942586425e-06
8.199477819e-06
6.760743751e-06
5.574415949e-06
4.597734271e-06
3.790940917e-06
3.124635126e-06
1.46187705e-05
1.461295405e-05
0.0002826965489
0.0002768012307
0.0002695844897
0.0002609854361
0.0002510332274
1.46219802e-05
1.773815162e-05
1.774222805e-05
1.462429549e-05
7.505762794e-05
7.506525889e-05
2.550898559e-05
2.550452974e-05
2.550071747e-05
2.550627153e-05
2.250270083e-05
2.250152351e-05
2.249785602e-05
2.249927542e-05
1.980219144e-05
1.980043456e-05
1.979627601e-05
1.979856291e-05
1.798004537e-05
1.79780768e-05
1.797362232e-05
1.797593551e-05
1.774687982e-05
1.774511346e-05
1.205634433e-05
9.943539137e-06
8.199340828e-06
6.760855979e-06
5.5763255e-06
4.597911207e-06
3.789880162e-06
3.124653126e-06
0.0002833765796
0.0002772851907
0.0002699038532
0.0002611803585
1.205818541e-05
1.462669128e-05
1.463052766e-05
1.205927289e-05
2.550756466e-05
2.55111424e-05
2.551294206e-05
2.551007798e-05
2.250772508e-05
2.250695218e-05
2.250452237e-05
2.250547798e-05
1.980764389e-05
1.98063977e-05
1.980366722e-05
1.980512763e-05
1.798623986e-05
1.798513819e-05
1.798199659e-05
1.79837299e-05
1.775369894e-05
1.77519964e-05
1.774882012e-05
1.775063927e-05
1.463281472e-05
1.463253525e-05
9.943861564e-06
8.199714766e-06
6.76311685e-06
5.576607269e-06
4.596738361e-06
3.78993093e-06
3.124801251e-06
0.0002838597122
0.0002776189166
0.0002701182158
1.20606984e-05
1.206417088e-05
2.250890832e-05
2.250954715e-05
2.251106966e-05
2.251052793e-05
1.981136411e-05
1.981055927e-05
1.980870087e-05
1.980971318e-05
1.799035868e-05
1.798941919e-05
1.798726782e-05
1.798835959e-05
1.775839012e-05
1.7758591e-05
1.775524797e-05
1.775742167e-05
1.463753372e-05
1.463603745e-05
1.463415563e-05
1.463554291e-05
1.206497905e-05
1.206556003e-05
9.944648913e-06
8.202364047e-06
6.763549247e-06
5.575347008e-06
4.596837794e-06
3.790129565e-06
3.124362126e-06
0.0002841958729
0.0002778448383
9.947710533e-06
1.981204772e-05
1.981272106e-05
1.98138981e-05
1.981331546e-05
1.799326808e-05
1.79927065e-05
1.799122774e-05
1.799201957e-05
1.77618055e-05
1.776120918e-05
1.775900329e-05
1.776026096e-05
1.464063173e-05
1.464236643e-05
1.463854415e-05
1.464134472e-05
1.20682212e-05
1.206693155e-05
1.206589971e-05
1.206695647e-05
9.947624267e-06
9.948664347e-06
8.203011601e-06
6.762250772e-06
5.575516203e-06
4.597102469e-06
3.789643184e-06
3.124706251e-06
0.0002844252826
1.799380951e-05
1.799434267e-05
1.799534844e-05
1.799487656e-05
1.776413943e-05
1.776384342e-05
1.776248583e-05
1.776333765e-05
1.464341503e-05
1.464327595e-05
1.464091635e-05
1.464246606e-05
1.207022348e-05
1.207272747e-05
1.20688653e-05
1.207185256e-05
9.949827592e-06
9.948732452e-06
9.948249229e-06
9.949053554e-06
8.201765031e-06
6.762521161e-06
5.575867818e-06
4.596576708e-06
3.790066177e-06
3.124666501e-06
1.776439792e-05
1.776506308e-05
1.776599071e-05
1.776554787e-05
1.464496706e-05
1.464502463e-05
1.464384798e-05
1.464477194e-05
1.207246867e-05
1.207259971e-05
1.207030017e-05
1.207192042e-05
9.951079507e-06
9.953880334e-06
9.950224347e-06
9.953141728e-06
8.203237651e-06
8.202318979e-06
8.202181546e-06
8.202793764e-06
6.762986376e-06
5.575319562e-06
4.59709453e-06
3.790042566e-06
3.126014126e-06
1.46448174e-05
1.464562094e-05
1.464627616e-05
1.464595523e-05
1.207346991e-05
1.207372835e-05
1.207273124e-05
1.207363759e-05
9.952874219e-06
9.953154566e-06
9.951029224e-06
9.95259253e-06
8.203979705e-06
8.20679452e-06
8.203469483e-06
8.206178553e-06
6.763211394e-06
6.762447202e-06
5.575950521e-06
4.597098864e-06
3.79163155e-06
3.126233876e-06
1.207309432e-05
1.20739251e-05
1.207438224e-05
1.207415164e-05
9.953490161e-06
9.953850485e-06
9.953021258e-06
9.953861426e-06
8.205402084e-06
8.20575492e-06
8.203856489e-06
8.205295162e-06
6.76361001e-06
6.766278034e-06
6.763333194e-06
6.765770091e-06
5.576000451e-06
4.598955625e-06
3.791904703e-06
3.124579751e-06
9.953004058e-06
9.953799486e-06
9.954112652e-06
9.953948975e-06
8.205750618e-06
8.206151998e-06
8.205471976e-06
8.206223202e-06
6.764728171e-06
6.765105596e-06
6.76344886e-06
6.764732229e-06
5.576121251e-06
5.578560185e-06
5.578144669e-06
4.599293489e-06
3.789995338e-06
3.124420251e-06
8.205226396e-06
8.20595355e-06
8.206162526e-06
8.206048376e-06
6.764892618e-06
6.765298701e-06
6.76474672e-06
6.765402695e-06
5.576993054e-06
5.577366177e-06
5.575944433e-06
5.577065491e-06
4.597117075e-06
3.789824327e-06
3.125111751e-06
6.764374058e-06
6.765019143e-06
6.765153019e-06
6.765075512e-06
5.577033984e-06
5.577421825e-06
5.576978812e-06
5.577541794e-06
4.597791236e-06
4.598143686e-06
4.596938908e-06
4.597903328e-06
3.790644365e-06
3.125262501e-06
5.576544647e-06
5.577105362e-06
5.577185395e-06
5.577134968e-06
4.597751386e-06
4.598109351e-06
4.597757169e-06
4.598233709e-06
3.790512265e-06
3.790835401e-06
3.124972251e-06
4.597303796e-06
4.597783624e-06
4.59782553e-06
4.597794871e-06
3.790421469e-06
3.790744604e-06
3.790466989e-06
3.790866142e-06
3.124921376e-06
3.790020755e-06
3.790426722e-06
3.790442327e-06
3.790425444e-06
3.124851501e-06
3.125138376e-06
3.125253251e-06
3.124498251e-06
3.124838626e-06
3.124836376e-06
3.124829126e-06
3.124689501e-06
3.790357809e-06
3.125064501e-06
4.59784065e-06
3.790793103e-06
3.125078626e-06
5.577352456e-06
4.598340126e-06
3.790808767e-06
3.124863626e-06
6.76554555e-06
5.577916787e-06
4.598357524e-06
3.79055759e-06
3.125040876e-06
8.206882455e-06
6.766169147e-06
5.577935067e-06
4.598067088e-06
3.790763138e-06
3.125203751e-06
9.955301596e-06
8.207549859e-06
6.766188137e-06
5.577605181e-06
4.598302927e-06
3.790951996e-06
3.125144126e-06
1.207623627e-05
9.955981266e-06
8.207569063e-06
6.76582084e-06
5.577870865e-06
4.598519242e-06
3.790881253e-06
3.124809876e-06
1.464906813e-05
1.20768703e-05
9.9559987e-06
8.207171948e-06
6.766113801e-06
5.578115084e-06
4.598436268e-06
3.790491405e-06
3.124777126e-06
1.777009927e-05
1.464955698e-05
1.207688436e-05
9.955589245e-06
8.207485485e-06
6.766383667e-06
5.578018776e-06
4.597986162e-06
3.790452752e-06
3.125096501e-06
1.799860988e-05
1.7770282e-05
1.464956424e-05
1.207649515e-05
9.955908493e-06
8.207773617e-06
6.766273449e-06
5.577506901e-06
4.597941129e-06
3.790824147e-06
3.125079751e-06
1.981757121e-05
1.799859534e-05
1.777027609e-05
1.464925178e-05
1.207679189e-05
9.956200873e-06
8.207650908e-06
6.765703129e-06
5.577454526e-06
4.598367985e-06
3.790804874e-06
3.124857376e-06
2.251635283e-05
1.981756064e-05
1.799859493e-05
1.777013269e-05
1.464947966e-05
1.207706421e-05
9.956068529e-06
8.207032262e-06
6.765642868e-06
5.577938261e-06
4.598346242e-06
3.790546114e-06
3.125065626e-06
2.551969124e-05
2.251635422e-05
1.981756101e-05
1.799859205e-05
1.777021762e-05
1.464968959e-05
1.207692803e-05
9.955426397e-06
8.206965418e-06
6.766179689e-06
5.577913866e-06
4.598048998e-06
3.790788952e-06
3.125050626e-06
7.509847386e-05
2.551968947e-05
2.251636182e-05
1.981756633e-05
1.799859454e-05
1.777029495e-05
1.464956041e-05
1.207630896e-05
9.955354111e-06
8.207542531e-06
6.766153053e-06
5.577577722e-06
4.598328401e-06
3.790771763e-06
3.125079501e-06
8.165583316e-05
7.509857693e-05
2.551971883e-05
2.251637408e-05
1.981757236e-05
1.799859529e-05
1.777019189e-05
1.464904497e-05
1.207623435e-05
9.95594598e-06
8.207515111e-06
6.765780874e-06
5.577894454e-06
4.598309504e-06
3.79080553e-06
3.124750376e-06
0.0002276992532
8.165590462e-05
7.509867813e-05
2.551972523e-05
2.251638484e-05
1.981756918e-05
1.799855176e-05
1.776991416e-05
1.464897504e-05
1.207679406e-05
9.955920234e-06
8.207116335e-06
6.766133017e-06
5.577874132e-06
4.598348201e-06
3.790422831e-06
3.124735126e-06
0.0002276994245
0.0002400028644
8.165599249e-05