/*--------------------------------*- C++ -*----------------------------------*\
  =========                 |
  \\      /  F ield         | OpenFOAM: The Open Source CFD Toolbox
   \\    /   O peration     | Website:  https://openfoam.org
    \\  /    A nd           | Version:  8
     \\/     M anipulation  |
\*---------------------------------------------------------------------------*/






FoamFile
{
    version     2.0;
    format      ascii;
    class       volScalarField;
    location    "0";
    object      pDDES;
}
// * * * * * * * * * * * * * * * * * * * * * * * * * * * * * * * * * * * * * //

dimensions      [0 2 -2 0 0 0 0];


internalField   nonuniform List<scalar> 
17348
(
-5.297039388e-05
-5.357757254e-05
-5.223175685e-05
-5.397214773e-05
-5.295621304e-05
-5.155920007e-05
-5.522120773e-05
-5.302711725e-05
-5.373252498e-05
-5.213743134e-05
-5.125243479e-05
-5.418259752e-05
-5.643963232e-05
-5.22903938e-05
-5.309348126e-05
-5.161705485e-05
-5.096923269e-05
-5.103133662e-05
-5.396397682e-05
-5.554685049e-05
-5.317093746e-05
-5.747533214e-05
-5.161124864e-05
-5.220397361e-05
-5.120681453e-05
-5.095639062e-05
-5.066945232e-05
-5.06415563e-05
-5.449459422e-05
-5.331131979e-05
-5.68692376e-05
-5.247433e-05
-5.872955444e-05
-5.123162191e-05
-5.166839037e-05
-5.090323612e-05
-5.061253614e-05
-5.0400693e-05
-5.043678175e-05
-5.594394315e-05
-5.344107194e-05
-5.428801887e-05
-5.244622298e-05
-5.178653737e-05
-5.734623846e-05
-6.178137119e-05
-5.84671543e-05
-5.092671199e-05
-5.091537969e-05
-5.130066347e-05
-5.060758122e-05
-5.040050746e-05
-5.02699113e-05
-5.030195098e-05
-5.495321602e-05
-5.27190532e-05
-5.368193888e-05
-5.18546658e-05
-5.137653352e-05
-5.639694427e-05
-6.00288804e-05
-6.432065857e-05
-5.784906534e-05
-5.061465708e-05
-5.090910781e-05
-5.058910756e-05
-5.095704182e-05
-5.038420204e-05
-5.026389408e-05
-5.019666423e-05
-5.022391997e-05
-5.479548417e-05
-5.404275726e-05
-5.223429253e-05
-5.297754251e-05
-5.165599578e-05
-5.097839312e-05
-5.101267379e-05
-5.545606473e-05
-5.861698446e-05
-6.312696496e-05
-6.600007328e-05
-5.706770025e-05
-5.038527888e-05
-5.058931492e-05
-5.034996866e-05
-5.057299131e-05
-5.024488928e-05
-5.018659067e-05
-5.016502473e-05
-5.018925003e-05
-5.422701361e-05
-5.318827607e-05
-5.181868255e-05
-5.229876842e-05
-5.139180212e-05
-5.112131475e-05
-5.064318975e-05
-5.05561402e-05
-5.451050674e-05
-6.201780343e-05
-5.7272704e-05
-5.870534733e-05
-5.652194523e-05
-6.485598715e-05
-6.554474385e-05
-5.02392395e-05
-5.035054346e-05
-5.020662138e-05
-5.033395792e-05
-5.016598152e-05
-5.015165152e-05
-5.016003706e-05
-5.018249794e-05
-5.373187014e-05
-5.27025004e-05
-5.148003402e-05
-5.192231401e-05
-5.107722245e-05
-5.100914859e-05
-5.069445615e-05
-5.033445268e-05
-5.03054107e-05
-5.342438453e-05
-5.432121543e-05
-5.330221757e-05
-6.029562792e-05
-6.372049393e-05
-5.574247552e-05
-5.50729128e-05
-5.817617784e-05
-6.395082892e-05
-6.245714758e-05
-5.015608258e-05
-5.019949822e-05
-5.012606925e-05
-5.017934745e-05
-5.013088594e-05
-5.01445902e-05
-5.016835712e-05
-5.01888826e-05
-5.223917105e-05
-5.10621685e-05
-5.100982162e-05
-5.169681026e-05
-5.071539636e-05
-5.065856749e-05
-5.031863111e-05
-5.01725408e-05
-5.014374983e-05
-5.24582465e-05
-5.281437188e-05
-5.381652591e-05
-6.272233441e-05
-6.025987022e-05
-5.896970106e-05
-6.277721695e-05
-5.436279025e-05
-5.447211151e-05
-5.489452815e-05
-5.558400153e-05
-5.389239232e-05
-5.652097752e-05
-6.024121831e-05
-5.665938079e-05
-5.011736357e-05
-5.011312533e-05
-5.008967128e-05
-5.009055167e-05
-5.012338079e-05
-5.015201896e-05
-5.018343654e-05
-5.020508979e-05
-5.185613918e-05
-5.069216786e-05
-5.119447815e-05
-5.074347791e-05
-5.131078797e-05
-5.034980859e-05
-5.031574256e-05
-5.014575436e-05
-5.007829168e-05
-5.005123239e-05
-5.213227996e-05
-5.232745025e-05
-5.292475544e-05
-6.114650023e-05
-6.165376544e-05
-5.957298345e-05
-5.737321408e-05
-5.85088128e-05
-5.339421841e-05
-5.324684753e-05
-5.378304559e-05
-5.502872955e-05
-5.635125854e-05
-5.520015475e-05
-5.478374078e-05
-4.881653877e-05
-5.01089271e-05
-5.007310392e-05
-5.008240987e-05
-5.00491733e-05
-5.013234841e-05
-5.016895375e-05
-5.020110984e-05
-5.021880133e-05
-5.144959869e-05
-5.145334944e-05
-5.034964852e-05
-5.079410766e-05
-5.034345668e-05
-5.088894977e-05
-5.01368886e-05
-5.012011388e-05
-5.004597188e-05
-5.003260594e-05
-5.000624515e-05
-5.163705646e-05
-5.162547677e-05
-5.179402433e-05
-5.179176878e-05
-5.248170783e-05
-6.071602184e-05
-6.026466144e-05
-6.095432036e-05
-5.73041325e-05
-5.826879715e-05
-5.573772069e-05
-5.604748731e-05
-5.727258031e-05
-5.344991587e-05
-5.260275429e-05
-5.279878678e-05
-5.307655374e-05
-5.402595343e-05
-5.451105244e-05
-4.758298746e-05
-4.325737245e-05
-5.011673784e-05
-5.006386345e-05
-5.009123561e-05
-5.003899423e-05
-5.01495706e-05
-5.018467346e-05
-5.103088915e-05
-5.092068022e-05
-5.014547787e-05
-5.038894233e-05
-5.014077033e-05
-5.044349746e-05
-5.004349805e-05
-5.003584374e-05
-4.999639714e-05
-5.001970931e-05
-4.999288649e-05
-5.100559429e-05
-5.112096551e-05
-5.112008148e-05
-5.192655954e-05
-5.124853851e-05
-5.19183377e-05
-6.007694901e-05
-5.629842781e-05
-5.905178114e-05
-6.040744483e-05
-5.228556256e-05
-5.825910193e-05
-5.731145939e-05
-5.6672543e-05
-5.475600119e-05
-5.512834832e-05
-4.661746061e-05
-5.197217251e-05
-5.200694432e-05
-5.206610513e-05
-5.213167242e-05
-5.234745549e-05
-5.227659494e-05
-5.351912114e-05
-5.396972119e-05
-4.240921044e-05
-3.787247624e-05
-5.013313785e-05
-5.007146683e-05
-5.010660971e-05
-5.004683771e-05
-5.016696377e-05
-5.060337207e-05
-5.054454959e-05
-5.005767889e-05
-5.017236253e-05
-5.005320781e-05
-5.018480078e-05
-4.999709199e-05
-4.999725206e-05
-4.997901851e-05
-5.002550097e-05
-4.999807425e-05
-5.065355799e-05
-5.068341125e-05
-5.074342334e-05
-5.122375296e-05
-5.077262904e-05
-5.135648098e-05
-5.502580098e-05
-5.934483488e-05
-6.035789556e-05
-5.085262819e-05
-5.754248559e-05
-5.8253725e-05
-5.910543769e-05
-5.973600855e-05
-4.586149225e-05
-5.592530215e-05
-5.608413267e-05
-5.399831207e-05
-5.460937246e-05
-4.183700366e-05
-5.139933637e-05
-5.135621905e-05
-5.14732892e-05
-5.152605081e-05
-5.168628559e-05
-5.245928332e-05
-5.163128662e-05
-5.313400834e-05
-5.337657058e-05
-3.769262912e-05
-3.530763934e-05
-5.014567796e-05
-5.008676453e-05
-5.012023394e-05
-5.006347419e-05
-5.027254156e-05
-5.025832797e-05
-5.001752652e-05
-5.007935033e-05
-5.001198588e-05
-5.008888184e-05
-4.998262739e-05
-4.998635995e-05
-4.998197983e-05
-5.004128252e-05
-5.00125243e-05
-5.031599721e-05
-5.033562775e-05
-5.038272502e-05
-5.083247743e-05
-5.040426913e-05
-5.086673627e-05
-5.576302647e-05
-4.938320853e-05
-5.90435593e-05
-6.006461626e-05
-4.517691559e-05
-5.677975059e-05
-5.694343054e-05
-5.847671127e-05
-5.893466732e-05
-4.122601968e-05
-5.480917753e-05
-5.527411486e-05
-5.351846266e-05
-5.389819489e-05
-3.783073771e-05
-5.096138921e-05
-5.093026266e-05
-5.102345676e-05
-5.106472599e-05
-5.118081026e-05
-5.177296407e-05
-5.236632569e-05
-5.113752559e-05
-5.239719394e-05
-5.259960744e-05
-5.275045987e-05
-3.544469655e-05
-3.386051685e-05
-5.009994857e-05
-5.007918662e-05
-5.013215923e-05
-5.011635221e-05
-5.00065762e-05
-5.003577462e-05
-5.000058809e-05
-5.004652849e-05
-4.998691293e-05
-4.999297744e-05
-4.999578596e-05
-5.00561182e-05
-5.002796752e-05
-5.016539217e-05
-5.018574302e-05
-5.022227924e-05
-5.045455327e-05
-5.024392885e-05
-5.047635204e-05
-4.894400627e-05
-5.689811223e-05
-5.426916323e-05
-4.472092041e-05
-5.919376781e-05
-5.947188038e-05
-4.080967847e-05
-5.573993985e-05
-5.642108226e-05
-5.80360429e-05
-5.891768524e-05
-5.775304817e-05
-5.758769112e-05
-3.81541613e-05
-5.401469389e-05
-5.467562369e-05
-5.286728992e-05
-5.298411998e-05
-5.320181663e-05
-5.33038401e-05
-3.592333451e-05
-5.053891073e-05
-5.05207463e-05
-5.058759416e-05
-5.061285992e-05
-5.069004692e-05
-5.125374446e-05
-5.176840568e-05
-5.066556332e-05
-5.179420259e-05
-5.195159974e-05
-5.207004142e-05
-3.475620179e-05
-5.008544031e-05
-5.006997526e-05
-5.001285172e-05
-5.002355101e-05
-5.000635429e-05
-5.00344031e-05
-5.000223609e-05
-5.000825695e-05
-5.001216778e-05
-5.01148279e-05
-5.013462578e-05
-5.016773866e-05
-5.028309897e-05
-5.019011587e-05
-5.030104876e-05
-5.041167606e-05
-4.530519072e-05
-5.731913552e-05
-5.427108044e-05
-4.116306809e-05
-5.908318781e-05
-5.839903315e-05
-5.868791413e-05
-5.945172961e-05
-3.861006917e-05
-5.526248424e-05
-5.610683002e-05
-5.659725866e-05
-5.716960004e-05
-3.646669575e-05
-5.3432399e-05
-5.331945431e-05
-5.443334157e-05
-5.37068081e-05
-5.219862942e-05
-5.22937371e-05
-5.240203609e-05
-5.247566514e-05
-5.034555215e-05
-5.03313604e-05
-5.037907249e-05
-5.039971438e-05
-5.046479782e-05
-5.075047375e-05
-5.127445911e-05
-5.043699639e-05
-5.129943384e-05
-5.141782094e-05
-5.145353862e-05
-3.627332262e-05
-5.007181608e-05
-5.005594721e-05
-5.002806211e-05
-5.00288661e-05
-5.002110265e-05
-5.004012928e-05
-5.001614409e-05
-5.002412581e-05
-5.009862434e-05
-5.011916073e-05
-5.014972703e-05
-5.022371624e-05
-5.017351941e-05
-5.024005077e-05
-4.639867257e-05
-5.159937427e-05
-4.23045858e-05
-5.784912719e-05
-5.470669566e-05
-3.964513235e-05
-5.894420974e-05
-5.924138532e-05
-5.92805518e-05
-5.759389023e-05
-5.808492642e-05
-3.743985144e-05
-5.485775182e-05
-5.534907541e-05
-5.610997323e-05
-5.67036368e-05
-5.271693226e-05
-5.262368359e-05
-5.369761857e-05
-5.37104097e-05
-5.281731501e-05
-5.149033677e-05
-5.150631841e-05
-5.158827116e-05
-5.163363676e-05
-5.027676525e-05
-5.026397776e-05
-5.030320608e-05
-5.032075933e-05
-5.03792362e-05
-5.051196786e-05
-5.078290997e-05
-5.035252252e-05
-5.081498966e-05
-5.090778723e-05
-5.098619658e-05
-3.830801143e-05
-3.840686622e-05
-5.007669097e-05
-5.006077117e-05
-5.004357445e-05
-5.004381092e-05
-5.003410843e-05
-5.005503408e-05
-5.010280802e-05
-5.012311522e-05
-5.015353236e-05
-5.02047078e-05
-5.017807416e-05
-5.022012192e-05
-4.797833753e-05
-4.383462147e-05
-5.504014916e-05
-5.156152474e-05
-5.318051626e-05
-4.107249333e-05
-5.916022201e-05
-5.819477883e-05
-5.884490747e-05
-5.883022823e-05
-5.705849617e-05
-5.799849532e-05
-5.389649596e-05
-5.404766853e-05
-5.430752935e-05
-5.452448386e-05
-5.57343883e-05
-5.48095195e-05
-5.612241148e-05
-5.179021537e-05
-5.171899829e-05
-5.281990161e-05
-5.284880172e-05
-5.189682997e-05
-5.101922216e-05
-5.108235564e-05
-5.114726082e-05
-5.117163164e-05
-5.025241626e-05
-5.024045095e-05
-5.027562293e-05
-5.029240128e-05
-5.034633068e-05
-5.042341945e-05
-5.055966176e-05
-5.03209485e-05
-5.060229159e-05
-5.068167229e-05
-5.075157605e-05
-4.054741657e-05
-4.117491335e-05
-3.985198418e-05
-5.009144297e-05
-5.007560685e-05
-5.005714775e-05
-5.007089931e-05
-5.011701069e-05
-5.01381619e-05
-5.016856812e-05
-5.020848766e-05
-5.01937684e-05
-5.022308324e-05
-5.046299339e-05
-4.57585702e-05
-4.268806879e-05
-5.657039219e-05
-5.295353913e-05
-5.527684698e-05
-5.918314127e-05
-5.902061457e-05
-5.85061025e-05
-5.797465928e-05
-5.868251174e-05
-5.866190622e-05
-5.701021291e-05
-5.75741069e-05
-5.306754611e-05
-5.32161539e-05
-5.347812476e-05
-5.365580728e-05
-5.479373795e-05
-5.489379691e-05
-5.392656385e-05
-5.556118413e-05
-5.522217543e-05
-5.128811972e-05
-5.123453229e-05
-5.194161713e-05
-5.206844799e-05
-5.137021799e-05
-5.08393714e-05
-5.089285696e-05
-5.09359088e-05
-5.09554593e-05
-5.025332575e-05
-5.024139682e-05
-5.027444786e-05
-5.029116437e-05
-5.03426636e-05
-5.038642848e-05
-5.047435479e-05
-5.031769979e-05
-5.052323468e-05
-5.059954128e-05
-5.067052916e-05
-4.218314643e-05
-4.442833961e-05
-4.293374514e-05
-5.010737368e-05
-5.008857261e-05
-5.013071495e-05
-5.015474744e-05
-5.018281445e-05
-5.022426558e-05
-5.021108518e-05
-5.023788253e-05
-5.343170051e-05
-4.802608964e-05
-4.46482336e-05
-5.789685383e-05
-5.849036461e-05
-5.484225767e-05
-5.713564678e-05
-5.90728705e-05
-5.858783334e-05
-5.884875281e-05
-5.821779632e-05
-5.694507126e-05
-5.601385783e-05
-5.746243187e-05
-5.231159957e-05
-5.253845302e-05
-5.274998693e-05
-5.293797949e-05
-5.399061774e-05
-5.41100635e-05
-5.317457544e-05
-5.460985267e-05
-5.444535782e-05
-5.104402226e-05
-5.100149065e-05
-5.142678128e-05
-5.148206037e-05
-5.110958591e-05
-5.075243826e-05
-5.079651601e-05
-5.082559437e-05
-5.08383564e-05
-5.026657527e-05
-5.025546852e-05
-5.028739542e-05
-5.030328248e-05
-5.0353814e-05
-5.038031668e-05
-5.043870624e-05
-5.032922127e-05
-5.049196261e-05
-5.056756709e-05
-5.064354627e-05
-4.255293243e-05
-4.782423275e-05
-4.621194967e-05
-4.668394467e-05
-5.02382245e-05
-5.025495557e-05
-5.69910444e-05
-5.066492668e-05
-5.616703129e-05
-5.821709055e-05
-5.951734784e-05
-5.886018334e-05
-5.903629426e-05
-5.89344927e-05
-5.915686415e-05
-5.957216854e-05
-5.878367665e-05
-5.847469583e-05
-5.919083924e-05
-5.613322355e-05
-5.626875645e-05
-5.501547275e-05
-5.695586151e-05
-5.653393964e-05
-5.168039206e-05
-5.18116758e-05
-5.199381849e-05
-5.217614671e-05
-5.329512351e-05
-5.341934229e-05
-5.240703467e-05
-5.368911661e-05
-5.357090049e-05
-5.090767081e-05
-5.087281897e-05
-5.116772445e-05
-5.122815492e-05
-5.096315363e-05
-5.072366548e-05
-5.07611112e-05
-5.077946116e-05
-5.078779941e-05
-5.028279338e-05
-5.026901272e-05
-5.030043758e-05
-5.031871842e-05
-5.036731454e-05
-5.038971358e-05
-5.043259807e-05
-5.034218339e-05
-5.048817548e-05
-5.056465307e-05
-5.064559446e-05
-4.454287409e-05
-5.133071681e-05
-4.93603693e-05
-5.130793943e-05
-4.898772386e-05
-5.983045776e-05
-5.993992454e-05
-5.351327127e-05
-5.81524364e-05
-5.833387331e-05
-5.976018292e-05
-5.995051106e-05
-6.032483725e-05
-6.121744082e-05
-6.071642201e-05
-6.055459016e-05
-5.951382627e-05
-5.924513607e-05
-5.834666081e-05
-5.758499174e-05
-5.513500582e-05
-5.531981151e-05
-5.389233411e-05
-5.611603774e-05
-5.576846161e-05
-5.134288222e-05
-5.146486001e-05
-5.16394939e-05
-5.182091627e-05
-5.254365897e-05
-5.265361688e-05
-5.204322952e-05
-5.295526717e-05
-5.284461804e-05
-5.084546137e-05
-5.08146295e-05
-5.102437353e-05
-5.109222548e-05
-5.089323167e-05
-5.072790736e-05
-5.076062735e-05
-5.077180322e-05
-5.07764853e-05
-5.040373799e-05
-5.044272621e-05
-5.049831452e-05
-5.0575778e-05
-5.066106678e-05
-5.43033093e-05
-5.352866719e-05
-5.629984662e-05
-5.387658894e-05
-6.243423559e-05
-6.299663801e-05
-6.225911784e-05
-5.71028213e-05
-5.990278805e-05
-6.066640344e-05
-6.044218026e-05
-6.07680704e-05
-6.181484787e-05
-6.187873805e-05
-6.244988617e-05
-6.253318861e-05
-5.92995093e-05
-5.872672409e-05
-5.807663547e-05
-5.776973558e-05
-5.666647849e-05
-5.409380174e-05
-5.432840408e-05
-5.321388016e-05
-5.510413757e-05
-5.470242468e-05
-5.120196874e-05
-5.132427032e-05
-5.149868593e-05
-5.168895223e-05
-5.218005026e-05
-5.227830479e-05
-5.190506999e-05
-5.261918704e-05
-5.244012573e-05
-5.082752614e-05
-5.079975017e-05
-5.095604138e-05
-5.102752402e-05
-5.087048703e-05
-5.074607907e-05
-5.077680544e-05
-5.078264803e-05
-5.078534377e-05
-5.045385478e-05
-5.051281187e-05
-5.058821989e-05
-5.067754682e-05
-5.955206143e-05
-5.867062646e-05
-6.095683784e-05
-6.480846787e-05
-6.372832286e-05
-6.473165558e-05
-6.492943794e-05
-6.523523916e-05
-6.346352893e-05
-6.433739327e-05
-6.220976502e-05
-6.076524005e-05
-6.019391367e-05
-6.101927647e-05
-6.238437345e-05
-6.259261863e-05
-6.306942669e-05
-6.257240602e-05
-5.884580969e-05
-5.924648212e-05
-5.795100878e-05
-5.732025966e-05
-5.700625479e-05
-5.56791565e-05
-5.345627505e-05
-5.369845894e-05
-5.285727093e-05
-5.444436101e-05
-5.404291369e-05
-5.113434599e-05
-5.125817552e-05
-5.14358253e-05
-5.163955939e-05
-5.202778266e-05
-5.211840107e-05
-5.185323971e-05
-5.242751286e-05
-5.226326175e-05
-5.083263386e-05
-5.080792107e-05
-5.093355867e-05
-5.100646013e-05
-5.087286991e-05
-5.075945955e-05
-5.079317634e-05
-5.07967452e-05
-5.080138362e-05
-6.525539357e-05
-6.447044143e-05
-6.389088958e-05
-6.698260404e-05
-6.720767124e-05
-6.639404455e-05
-6.699031655e-05
-6.682057574e-05
-6.562342605e-05
-6.425165338e-05
-6.651600415e-05
-6.085911809e-05
-6.058915096e-05
-5.943948781e-05
-6.224975368e-05
-6.33345262e-05
-6.311773177e-05
-6.39427526e-05
-5.830697046e-05
-5.871422763e-05
-5.701089685e-05
-5.661441173e-05
-5.619379226e-05
-5.494710058e-05
-5.310414417e-05
-5.335758397e-05
-5.264542051e-05
-5.409719233e-05
-5.369898645e-05
-5.111163773e-05
-5.123665323e-05
-5.141943257e-05
-5.163699097e-05
-5.195954873e-05
-5.204154877e-05
-5.185292684e-05
-5.233032789e-05
-5.217457147e-05
-5.084629811e-05
-5.082070493e-05
-5.093519576e-05
-5.100811904e-05
-5.088396574e-05
-6.911493256e-05
-6.867754564e-05
-6.65129337e-05
-6.754083006e-05
-6.940203457e-05
-6.847314944e-05
-6.936557475e-05
-6.946541544e-05
-6.836566172e-05
-6.827877951e-05
-6.755175855e-05
-6.746506551e-05
-6.563352508e-05
-6.879112334e-05
-6.064711124e-05
-6.10911884e-05
-5.973848238e-05
-5.839958249e-05
-6.201655196e-05
-6.344894064e-05
-6.261865201e-05
-6.421201397e-05
-5.739029439e-05
-5.785969188e-05
-5.634144327e-05
-5.595423136e-05
-5.553690426e-05
-5.460435932e-05
-5.289181354e-05
-5.31560072e-05
-5.253437848e-05
-5.3902113e-05
-5.349790081e-05
-5.111209612e-05
-5.123728261e-05
-5.142345617e-05
-5.16528271e-05
-5.194301411e-05
-5.201671593e-05
-5.187507122e-05
-5.229310045e-05
-5.214212069e-05
-5.094390872e-05
-5.101916759e-05
-7.503727829e-05
-7.388853555e-05
-7.149948942e-05
-7.200410619e-05
-7.207789895e-05
-7.103585085e-05
-7.041079516e-05
-7.147279393e-05
-7.110979641e-05
-6.987637607e-05
-6.888991629e-05
-6.849761849e-05
-6.787289749e-05
-6.684222899e-05
-6.017129272e-05
-6.074608245e-05
-5.886048893e-05
-5.774708552e-05
-6.160041085e-05
-6.339440733e-05
-6.224468234e-05
-6.432789814e-05
-6.537886657e-05
-5.677605441e-05
-5.722526839e-05
-5.600763689e-05
-5.560428326e-05
-5.516022429e-05
-5.442117981e-05
-5.278034587e-05
-5.305122613e-05
-5.248888556e-05
-5.380752918e-05
-5.339448035e-05
-5.111924111e-05
-5.124857853e-05
-5.14330568e-05
-5.167216295e-05
-5.195116682e-05
-5.201755266e-05
-5.188219075e-05
-5.228735245e-05
-5.213888653e-05
-8.001193055e-05
-7.852000999e-05
-7.518999337e-05
-7.384752098e-05
-7.494955207e-05
-7.471699064e-05
-7.322551392e-05
-7.22232362e-05
-7.297710545e-05
-7.217952952e-05
-7.04739723e-05
-6.974718417e-05
-6.903990288e-05
-6.772486086e-05
-6.658583879e-05
-5.947372119e-05
-6.025163748e-05
-5.831908129e-05
-5.736836465e-05
-6.110518007e-05
-6.317818043e-05
-6.194010348e-05
-6.436567492e-05
-6.558996392e-05
-5.642307224e-05
-5.685179349e-05
-5.58186257e-05
-5.54581311e-05
-5.501392297e-05
-5.434303966e-05
-5.273421993e-05
-5.300954217e-05
-5.24796269e-05
-5.377436901e-05
-5.335441529e-05
-5.196788698e-05
-5.202913962e-05
-5.229540693e-05
-5.214559496e-05
-8.245065692e-05
-8.174987306e-05
-8.00520429e-05
-8.075832739e-05
-7.779298176e-05
-7.670115156e-05
-7.626964361e-05
-7.762210589e-05
-7.681058196e-05
-7.558389916e-05
-7.327280764e-05
-7.471671415e-05
-7.277458644e-05
-7.109611761e-05
-7.030745473e-05
-6.904802285e-05
-6.744880375e-05
-6.622818182e-05
-5.89683732e-05
-5.978652553e-05
-5.796625555e-05
-5.712830898e-05
-6.071350799e-05
-6.297786604e-05
-6.167525135e-05
-6.407874025e-05
-6.524058699e-05
-5.620731463e-05
-5.662518379e-05
-5.572965892e-05
-5.541086648e-05
-5.497179154e-05
-5.432768012e-05
-5.272369526e-05
-5.300102202e-05
-5.248650996e-05
-5.376716217e-05
-5.334549496e-05
-8.55916951e-05
-8.452083421e-05
-8.21326903e-05
-8.352670557e-05
-8.048875316e-05
-7.915485185e-05
-7.849367103e-05
-7.956315676e-05
-7.865753287e-05
-7.696127432e-05
-7.410589023e-05
-7.525719411e-05
-7.304261089e-05
-7.163602277e-05
-7.050697604e-05
-6.893424143e-05
-6.72195165e-05
-6.59138459e-05
-5.864231935e-05
-5.946839519e-05
-5.772960139e-05
-5.69968106e-05
-6.045358532e-05
-6.275564374e-05
-6.149243563e-05
-6.379489787e-05
-6.486076745e-05
-5.609561413e-05
-5.650671301e-05
-5.570633584e-05
-5.542306462e-05
-5.499224062e-05
-5.433348997e-05
-5.272746785e-05
-5.300759221e-05
-5.376966874e-05
-5.334918751e-05
-8.780948701e-05
-8.762651123e-05
-8.412387979e-05
-8.587707998e-05
-8.230312233e-05
-8.12657745e-05
-7.972434105e-05
-8.106881432e-05
-7.923292287e-05
-7.828414527e-05
-7.433199789e-05
-7.690053462e-05
-7.568993169e-05
-7.325975457e-05
-7.186844596e-05
-7.046674727e-05
-6.87621141e-05
-6.702512474e-05
-6.567448145e-05
-5.842996325e-05
-5.928024257e-05
-5.759478154e-05
-5.694344145e-05
-6.031745579e-05
-6.256817869e-05
-6.141274935e-05
-6.356427184e-05
-6.458246207e-05
-5.605550177e-05
-5.64619877e-05
-5.571652582e-05
-5.54618673e-05
-5.503623834e-05
-5.436009451e-05
-8.939842519e-05
-8.886351134e-05
-8.480411634e-05
-8.702415653e-05
-8.358305786e-05
-8.231261017e-05
-8.054647333e-05
-8.20301866e-05
-7.957036723e-05
-7.840889157e-05
-7.453302533e-05
-7.734197425e-05
-7.591063331e-05
-7.330442895e-05
-7.184477727e-05
-7.034676673e-05
-6.860258873e-05
-6.689086877e-05
-6.552413106e-05
-5.831347153e-05
-5.919065734e-05
-5.75336162e-05
-5.693189087e-05
-6.027797281e-05
-6.245193799e-05
-6.141794438e-05
-6.341146945e-05
-6.441115693e-05
-5.605473052e-05
-5.64608672e-05
-5.574305396e-05
-5.548726767e-05
-5.504412184e-05
-9.130716353e-05
-9.100118768e-05
-8.665425412e-05
-8.85353802e-05
-8.495342627e-05
-8.366684051e-05
-8.104786684e-05
-8.265028009e-05
-7.971384184e-05
-7.836322038e-05
-7.460709458e-05
-7.727109187e-05
-7.588893641e-05
-7.320816076e-05
-7.172975893e-05
-7.024355727e-05
-6.849315105e-05
-6.682554522e-05
-6.545756332e-05
-5.826381675e-05
-5.916345253e-05
-5.751566641e-05
-5.69385993e-05
-6.029556243e-05
-6.240534276e-05
-6.147397653e-05
-6.33357995e-05
-6.433346425e-05
-5.606671766e-05
-5.646928912e-05
-9.296534699e-05
-9.241512453e-05
-8.790125867e-05
-8.984505257e-05
-8.620417793e-05
-8.439026715e-05
-8.129610069e-05
-8.292928396e-05
-7.972862659e-05
-7.826356159e-05
-7.453974104e-05
-7.7060904e-05
-7.577661017e-05
-7.308601926e-05
-7.162927068e-05
-7.019197074e-05
-6.844387099e-05
-6.681542436e-05
-6.54509422e-05
-5.824772597e-05
-5.916041846e-05
-5.75169106e-05
-6.032500096e-05
-6.241133815e-05
-6.154598668e-05
-6.331977056e-05
-6.432383088e-05
-9.37566947e-05
-9.311025497e-05
-8.877684741e-05
-9.037051495e-05
-8.674689161e-05
-8.470908506e-05
-8.135699318e-05
-8.298680041e-05
-7.968815044e-05
-7.816271682e-05
-7.442124479e-05
-7.689392078e-05
-7.565423584e-05
-7.299816934e-05
-7.158544031e-05
-7.019475015e-05
-6.843991287e-05
-6.683228276e-05
-6.54746982e-05
-5.824831896e-05
-5.917075032e-05
-6.035694241e-05
-6.244239194e-05
-6.15559693e-05
-6.333756755e-05
-6.434814713e-05
-9.418406262e-05
-9.354217764e-05
-8.907559823e-05
-9.054297698e-05
-8.683152555e-05
-8.477654774e-05
-8.133468509e-05
-8.294920553e-05
-7.964679389e-05
-7.809498493e-05
-7.432050188e-05
-7.679045666e-05
-7.556106721e-05
-7.296009426e-05
-7.159756206e-05
-7.023377839e-05
-6.846026372e-05
-6.686217966e-05
-6.55149488e-05
-6.248393038e-05
-6.336742081e-05
-6.437831325e-05
-9.452157974e-05
-9.369348118e-05
-8.906178846e-05
-9.053937538e-05
-8.679347957e-05
-8.473429625e-05
-8.130141214e-05
-8.2900282e-05
-7.962801465e-05
-7.806924987e-05
-7.426337834e-05
-7.674656808e-05
-7.551471208e-05
-7.296009426e-05
-7.164036651e-05
-7.028147957e-05
-6.850453065e-05
-9.463330207e-05
-9.371065244e-05
-8.901863475e-05
-9.051150846e-05
-8.674178389e-05
-8.467238513e-05
-8.128703485e-05
-8.287441597e-05
-7.963585085e-05
-7.807801012e-05
-7.424640353e-05
-7.674939843e-05
-7.551039016e-05
-7.297841512e-05
-7.168989396e-05
-7.027755055e-05
-9.465000767e-05
-9.370959015e-05
-8.898550732e-05
-9.048216452e-05
-8.669625095e-05
-8.463046106e-05
-8.129552589e-05
-8.28733173e-05
-7.966101839e-05
-7.810907846e-05
-7.425760123e-05
-7.678247493e-05
-7.553320756e-05
-7.299764547e-05
-7.172489859e-05
-9.465374023e-05
-9.371315537e-05
-8.89673247e-05
-9.047319327e-05
-8.667768998e-05
-8.461813559e-05
-8.131974027e-05
-8.288811659e-05
-7.969530998e-05
-7.815372373e-05
-7.427681703e-05
-7.681806164e-05
-7.555865886e-05
-9.466145275e-05
-9.357283125e-05
-8.876316861e-05
-9.066941129e-05
-8.668209193e-05
-8.462341066e-05
-8.132874063e-05
-8.291893755e-05
-9.443934687e-05
-9.349457105e-05
-8.873733896e-05
-9.060074808e-05
-8.650201198e-05
-8.463696577e-05
-4.838929453e-05
-4.827930752e-05
-4.837307642e-05
-4.814969725e-05
-4.82654068e-05
-4.836024164e-05
-4.800445458e-05
-4.813757914e-05
-4.825106225e-05
-4.836121298e-05
-4.799025919e-05
-4.785503188e-05
-4.812553016e-05
-4.824926873e-05
-4.838994573e-05
-4.797925067e-05
-4.784671546e-05
-4.768120198e-05
-4.812643965e-05
-4.827320663e-05
-4.846611409e-05
-4.798106602e-05
-4.783943587e-05
-4.767317296e-05
-4.75441484e-05
-4.81537827e-05
-4.834489664e-05
-4.861527486e-05
-4.801077375e-05
-4.784671182e-05
-4.7668138e-05
-4.752905079e-05
-4.752377936e-05
-4.822988194e-05
-4.849087782e-05
-4.886639363e-05
-4.808729864e-05
-4.788225488e-05
-4.767762584e-05
-4.753127723e-05
-4.751257075e-05
-4.755160626e-05
-4.837922461e-05
-4.87418838e-05
-4.925367102e-05
-4.823612471e-05
-4.796492431e-05
-4.771546446e-05
-4.755142436e-05
-4.750818698e-05
-4.753916073e-05
-4.752564928e-05
-4.863390495e-05
-4.911815267e-05
-4.983835242e-05
-4.848663593e-05
-4.811750841e-05
-4.780137897e-05
-4.760458978e-05
-4.752300447e-05
-4.752458699e-05
-4.75117813e-05
-4.744368925e-05
-4.902309593e-05
-4.962857929e-05
-5.062821583e-05
-4.897033432e-05
-4.83788499e-05
-4.795939094e-05
-4.771205931e-05
-4.757248462e-05
-4.752605309e-05
-4.749594518e-05
-4.742702731e-05
-4.733405513e-05
-4.962374805e-05
-5.02786861e-05
-5.142401642e-05
-5.119735579e-05
-4.959505532e-05
-4.8879323e-05
-4.823177733e-05
-4.789454761e-05
-4.767576684e-05
-4.755768532e-05
-4.749599975e-05
-4.741119483e-05
-4.731975423e-05
-4.720192737e-05
-5.080951451e-05
-5.281101767e-05
-5.244144268e-05
-5.225779751e-05
-5.009038432e-05
-4.959550279e-05
-4.87477264e-05
-4.819358583e-05
-4.785659257e-05
-4.764060577e-05
-4.752409586e-05
-4.740828444e-05
-4.730807632e-05
-4.718606942e-05
-4.705103856e-05
-5.181251254e-05
-5.386405974e-05
-5.409138612e-05
-5.33917264e-05
-5.337463517e-05
-5.065377627e-05
-4.945994442e-05
-4.871634155e-05
-4.815266948e-05
-4.77995527e-05
-4.760307638e-05
-4.743468162e-05
-4.731280933e-05
-4.717629781e-05
-4.70371233e-05
-4.686924149e-05
-5.303797661e-05
-5.518060061e-05
-5.488808529e-05
-5.555029202e-05
-5.445141505e-05
-5.47168529e-05
-5.15591164e-05
-4.99452035e-05
-4.944607645e-05
-4.870411794e-05
-4.807236837e-05
-4.775541674e-05
-4.751075903e-05
-4.734969116e-05
-4.718364653e-05
-4.702554361e-05
-4.685802196e-05
-4.668089241e-05
-5.355971007e-05
-5.694595166e-05
-5.663695993e-05
-5.585017061e-05
-5.05863718e-05
-5.218571823e-05
-4.947665366e-05
-4.848630124e-05
-4.801784235e-05
-4.766188431e-05
-4.744167745e-05
-4.722307858e-05
-4.70287996e-05
-4.685138629e-05
-4.667145549e-05
-4.649760376e-05
-5.415046326e-05
-5.813036842e-05
-5.788910494e-05
-5.735074228e-05
-5.498380779e-05
-5.082006101e-05
-5.268533278e-05
-4.920929496e-05
-4.853081919e-05
-4.792377877e-05
-4.761297532e-05
-4.731860827e-05
-4.706309846e-05
-4.686430111e-05
-4.666992754e-05
-4.649523544e-05
-4.632956552e-05
-5.901694749e-05
-5.952866559e-05
-5.515542944e-05
-5.838971629e-05
-5.378504284e-05
-4.994572737e-05
-5.124558447e-05
-4.908561095e-05
-4.833758067e-05
-4.789484228e-05
-4.74966364e-05
-4.715495015e-05
-4.69135266e-05
-4.668742258e-05
-4.649520997e-05
-4.632439595e-05
-4.626201553e-05
-6.204815872e-05
-5.634776608e-05
-5.316253737e-05
-5.389116996e-05
-5.990681166e-05
-5.219656668e-05
-5.038386735e-05
-4.905657261e-05
-4.841031114e-05
-4.778963194e-05
-4.733046808e-05
-4.702295701e-05
-4.674257798e-05
-4.651400377e-05
-4.633178833e-05
-4.624642315e-05
-4.630116018e-05
-6.3762629e-05
-6.065981506e-05
-5.765326569e-05
-5.367271297e-05
-5.170264194e-05
-5.249898823e-05
-5.093841537e-05
-4.958406498e-05
-4.897914914e-05
-4.823517156e-05
-4.762413664e-05
-4.722154335e-05
-4.68618673e-05
-4.656888268e-05
-4.635857113e-05
-4.624942085e-05
-4.629713658e-05
-4.630126568e-05
-6.06046633e-05
-6.554564607e-05
-5.883226549e-05
-5.523560685e-05
-5.223233165e-05
-5.154787505e-05
-5.018091178e-05
-5.064473589e-05
-4.980978338e-05
-4.904892194e-05
-4.819409878e-05
-4.754444672e-05
-4.707044718e-05
-4.668423207e-05
-4.642127533e-05
-4.627185626e-05
-4.628837632e-05
-4.628410898e-05
-4.62494645e-05
-6.262074749e-05
-5.920514741e-05
-5.789337592e-05
-6.724776176e-05
-5.64806287e-05
-5.326073369e-05
-5.421478272e-05
-5.110860366e-05
-5.031667752e-05
-4.942840314e-05
-4.97884248e-05
-4.894085578e-05
-4.813692794e-05
-4.74148801e-05
-4.688999979e-05
-4.654535223e-05
-4.633065691e-05
-4.630196781e-05
-4.627159069e-05
-4.623773202e-05
-4.615794751e-05
-6.053030665e-05
-6.419721467e-05
-6.124950596e-05
-5.659532326e-05
-5.505618537e-05
-6.879566354e-05
-5.395171684e-05
-5.194237019e-05
-5.288731336e-05
-4.980438462e-05
-4.937894482e-05
-4.902087676e-05
-4.885667295e-05
-4.805183562e-05
-4.722640006e-05
-4.675646778e-05
-4.64486875e-05
-4.635342339e-05
-4.627826638e-05
-4.622281631e-05
-4.614657519e-05
-4.604203423e-05
-5.787689952e-05
-6.053306424e-05
-6.57065757e-05
-5.93178338e-05
-5.38210079e-05
-5.304497245e-05
-5.400182272e-05
-6.994217256e-05
-5.240534665e-05
-5.18289271e-05
-5.03200572e-05
-5.127859185e-05
-4.916960825e-05
-4.847990203e-05
-4.858113243e-05
-4.774267654e-05
-4.709130371e-05
-4.665291635e-05
-4.6465997e-05
-4.632149648e-05
-4.62247408e-05
-4.61349191e-05
-4.603144771e-05
-4.59031944e-05
-5.490219337e-05
-5.805496039e-05
-5.712069833e-05
-6.221876538e-05
-6.70928639e-05
-5.629924635e-05
-5.221137326e-05
-5.161047011e-05
-5.272768976e-05
-5.178484935e-05
-7.109834405e-05
-5.09856327e-05
-5.078285903e-05
-4.948475544e-05
-5.002624312e-05
-4.844534124e-05
-4.844973955e-05
-4.77002759e-05
-4.697420081e-05
-4.666605673e-05
-4.642407293e-05
-4.6258574e-05
-4.61440759e-05
-4.60234769e-05
-4.589673335e-05
-4.573173646e-05
-5.283765495e-05
-5.382997915e-05
-5.521124331e-05
-5.939091352e-05
-5.42461421e-05
-6.356799713e-05
-6.019666762e-05
-6.819650298e-05
-5.353139204e-05
-5.072519343e-05
-5.103318108e-05
-5.053249333e-05
-5.007583241e-05
-7.191576879e-05
-4.989599256e-05
-4.956862176e-05
-4.860595072e-05
-4.91180399e-05