/*--------------------------------*- C++ -*----------------------------------*\
  =========                 |
  \\      /  F ield         | OpenFOAM: The Open Source CFD Toolbox
   \\    /   O peration     | Website:  https://openfoam.org
    \\  /    A nd           | Version:  8
     \\/     M anipulation  |
\*---------------------------------------------------------------------------*/






FoamFile
{
    version     2.0;
    format      ascii;
    class       volSymmTensorField;
    location    "0";
    object      TauDDES;
}
// * * * * * * * * * * * * * * * * * * * * * * * * * * * * * * * * * * * * * //

dimensions      [0 2 -2 0 0 0 0];


internalField   nonuniform List<symmTensor>
17348
(
( 1.125600102e-05 -7.205819202e-06 -2.245740376e-07 9.517441868e-06 3.366776582e-07 1.55755879e-05 )
( 1.152009099e-05 -6.945041605e-06 -2.275303643e-07 1.00729394e-05 3.751298436e-07 1.608873754e-05 )
( 1.070144936e-05 -7.323101272e-06 -1.794454363e-07 8.815352885e-06 2.895300497e-07 1.525029074e-05 )
( 1.158717714e-05 -6.689815109e-06 -2.110199944e-07 1.044373585e-05 3.988919843e-07 1.6504624e-05 )
( 1.109363075e-05 -7.061501947e-06 -1.904010958e-07 9.499325643e-06 3.417314076e-07 1.589046042e-05 )
( 9.982329175e-06 -7.271152754e-06 -1.222652912e-07 8.017826076e-06 2.252433973e-07 1.467027141e-05 )
( 1.21227331e-05 -6.165656487e-06 -2.119475084e-07 1.163746583e-05 4.470503541e-07 1.727025847e-05 )
( 1.102897295e-05 -6.942606888e-06 -1.777412137e-07 9.560677427e-06 3.510411943e-07 1.61381522e-05 )
( 1.134470767e-05 -6.667024081e-06 -1.983914331e-07 1.023382447e-05 4.002444598e-07 1.671165774e-05 )
( 1.049038565e-05 -7.202075267e-06 -1.437456945e-07 8.672336662e-06 2.821420253e-07 1.541798883e-05 )
( 9.456598491e-06 -7.119729617e-06 -9.112186206e-08 7.545780136e-06 1.861272096e-07 1.423655158e-05 )
( 1.145075385e-05 -6.404135092e-06 -1.94268523e-07 1.065803463e-05 4.236693769e-07 1.718768726e-05 )
( 1.298775715e-05 -5.970422535e-06 -1.690928002e-07 1.304659691e-05 4.651655843e-07 1.814977077e-05 )
( 1.043828524e-05 -7.042785455e-06 -1.370881222e-07 8.800630894e-06 2.977160989e-07 1.57886443e-05 )
( 1.090595106e-05 -6.770011169e-06 -1.637400828e-07 9.609361769e-06 3.577058294e-07 1.651483035e-05 )
( 9.916799172e-06 -7.156239917e-06 -1.063843769e-07 8.053560123e-06 2.317577099e-07 1.496648656e-05 )
( 8.860315575e-06 -6.87189231e-06 -6.882481074e-08 7.016617928e-06 1.472934201e-07 1.350983439e-05 )
( 8.967888789e-06 -6.931572443e-06 -7.704347382e-08 7.079626357e-06 1.518069297e-07 1.349680952e-05 )
( 1.118332329e-05 -6.357103302e-06 -1.867830974e-07 1.041352607e-05 4.20137809e-07 1.741945562e-05 )
( 1.216156124e-05 -5.950239483e-06 -1.909364187e-07 1.203736247e-05 4.8156096e-07 1.806512228e-05 )
( 1.083285042e-05 -6.646883776e-06 -1.591050705e-07 9.654672795e-06 3.626232115e-07 1.677470027e-05 )
( 1.405535022e-05 -6.025670245e-06 -1.004469325e-07 1.440072992e-05 4.612574571e-07 1.905080717e-05 )
( 9.797092389e-06 -7.034311693e-06 -8.370904681e-08 8.027776857e-06 2.312358305e-07 1.5243284e-05 )
( 1.026852988e-05 -6.929649317e-06 -1.110020094e-07 8.674088349e-06 2.869965954e-07 1.599298776e-05 )
( 9.316775504e-06 -7.008895409e-06 -6.994140023e-08 7.477284726e-06 1.829392318e-07 1.440708184e-05 )
( 8.808345228e-06 -6.828607184e-06 -5.901904743e-08 7.002897291e-06 1.469839361e-07 1.363986576e-05 )
( 7.972763342e-06 -6.360240604e-06 -4.07694003e-08 6.227121048e-06 1.004683057e-07 1.221623279e-05 )
( 7.890243069e-06 -6.329483313e-06 -4.245825735e-08 6.107939043e-06 9.20023453e-08 1.195977347e-05 )
( 1.137084655e-05 -6.109767128e-06 -1.822029532e-07 1.09144321e-05 4.453506222e-07 1.796289871e-05 )
( 1.073016301e-05 -6.455405583e-06 -1.549931596e-07 9.729815247e-06 3.688855941e-07 1.720586442e-05 )
( 1.343336498e-05 -5.950665582e-06 -1.186633511e-07 1.368757057e-05 4.838534551e-07 1.908373451e-05 )
( 1.0283351e-05 -6.733987902e-06 -1.249148909e-07 8.892485312e-06 3.081560465e-07 1.650173181e-05 )
( 1.610884647e-05 -6.581080015e-06 6.254047946e-08 1.637810055e-05 3.93427058e-07 2.068074173e-05 )
( 9.205473361e-06 -6.885801668e-06 -4.624769545e-08 7.473292953e-06 1.86912132e-07 1.470534517e-05 )
( 9.696374036e-06 -6.906155249e-06 -7.138813629e-08 8.028817319e-06 2.310397633e-07 1.551847163e-05 )
( 8.704745596e-06 -6.769193988e-06 -4.743071358e-08 6.926046808e-06 1.429881422e-07 1.364186483e-05 )
( 7.843324056e-06 -6.296362699e-06 -3.354800171e-08 6.128814221e-06 9.510954158e-08 1.221319508e-05 )
( 6.818546353e-06 -5.60112403e-06 -1.530833238e-08 5.249749393e-06 5.489319221e-08 1.048137619e-05 )
( 6.81522215e-06 -5.594312825e-06 -1.995886656e-08 5.221698302e-06 5.389680879e-08 1.036624235e-05 )
( 1.23536247e-05 -5.767506082e-06 -1.69000927e-07 1.248440185e-05 4.998873919e-07 1.894906745e-05 )
( 1.067402172e-05 -6.321065484e-06 -1.537819685e-07 9.79102515e-06 3.711703869e-07 1.749198964e-05 )
( 1.109058576e-05 -6.038903848e-06 -1.809508205e-07 1.062867068e-05 4.304603181e-07 1.820473699e-05 )
( 1.014182362e-05 -6.611067874e-06 -1.148212334e-07 8.788460036e-06 2.935814507e-07 1.674033956e-05 )
( 9.689043509e-06 -6.757538358e-06 -7.703514626e-08 8.122360668e-06 2.330875049e-07 1.596093898e-05 )
( 1.393137336e-05 -5.898282325e-06 -8.964909881e-08 1.431380042e-05 4.79830021e-07 2.009835225e-05 )
( 2.33235678e-05 -9.29280759e-06 4.542091006e-07 2.162553938e-05 1.601676445e-07 2.394155126e-05 )
( 1.559935117e-05 -6.267939625e-06 -1.23064936e-08 1.591165346e-05 4.344162221e-07 2.119056444e-05 )
( 8.649827578e-06 -6.699672667e-06 -3.427495798e-08 6.937926173e-06 1.467914643e-07 1.382397932e-05 )
( 8.622151654e-06 -6.673499229e-06 -2.6189932e-08 6.941654192e-06 1.462410211e-07 1.393445473e-05 )
( 9.187480828e-06 -6.778904662e-06 -4.455490199e-08 7.521290172e-06 1.859854706e-07 1.50386295e-05 )
( 7.843131243e-06 -6.284524716e-06 -2.624800821e-08 6.156720247e-06 9.757545882e-08 1.234552656e-05 )
( 6.795178251e-06 -5.589942702e-06 -1.236127734e-08 5.253598374e-06 5.569389216e-08 1.05928857e-05 )
( 5.65373557e-06 -4.730210549e-06 -1.171056141e-09 4.322243967e-06 2.744233285e-08 8.663253539e-06 )
( 5.642060842e-06 -4.712521331e-06 -6.663145591e-09 4.291651749e-06 2.835090029e-08 8.566097677e-06 )
( 1.146046088e-05 -5.795116522e-06 -1.830045449e-07 1.129493285e-05 4.499281374e-07 1.889244777e-05 )
( 1.007950232e-05 -6.401923201e-06 -1.276658423e-07 8.96282836e-06 2.979106455e-07 1.719244028e-05 )
( 1.062962747e-05 -6.106693036e-06 -1.564228569e-07 9.947908438e-06 3.704430185e-07 1.802027873e-05 )
( 9.532957847e-06 -6.622412911e-06 -7.592508666e-08 8.120502571e-06 2.180858303e-07 1.625864752e-05 )
( 9.112825865e-06 -6.662899978e-06 -4.452014224e-08 7.594284398e-06 1.74584045e-07 1.542394421e-05 )
( 1.272127338e-05 -5.635733487e-06 -1.572770714e-07 1.297324889e-05 4.796295912e-07 1.992413127e-05 )
( 1.948216232e-05 -7.653376088e-06 1.600399173e-07 1.851671732e-05 2.905723875e-07 2.314715675e-05 )
( 3.512181138e-05 -1.419437103e-05 7.32350486e-07 2.697779382e-05 -6.93933373e-08 2.721889359e-05 )
( 1.473031625e-05 -6.024861705e-06 -6.531602281e-08 1.498630354e-05 4.359096692e-07 2.118047087e-05 )
( 7.774653568e-06 -6.236146874e-06 -1.66691958e-08 6.131382634e-06 9.664613998e-08 1.245018848e-05 )
( 8.567668374e-06 -6.626630238e-06 -2.077598715e-08 6.924952231e-06 1.397608287e-07 1.404808063e-05 )
( 7.768677278e-06 -6.219844181e-06 -7.666914215e-09 6.161508736e-06 9.534684864e-08 1.257695658e-05 )
( 8.604721188e-06 -6.613768619e-06 -1.965572594e-08 7.004977761e-06 1.380160768e-07 1.42691033e-05 )
( 6.795714853e-06 -5.590735327e-06 -6.260830965e-09 5.273815532e-06 5.619473242e-08 1.069864174e-05 )
( 5.649572358e-06 -4.733580681e-06 2.973234992e-09 4.335996437e-06 2.677139221e-08 8.756094758e-06 )
( 4.435557003e-06 -3.760771506e-06 6.057938151e-09 3.375405413e-06 1.019322227e-08 6.709855825e-06 )
( 4.416661341e-06 -3.737577799e-06 -8.403555629e-11 3.345105824e-06 1.2521852e-08 6.634792953e-06 )
( 1.119594708e-05 -5.688038982e-06 -1.862849643e-07 1.101611633e-05 4.206899007e-07 1.918430098e-05 )
( 1.073813928e-05 -5.898010386e-06 -1.648342334e-07 1.025463462e-05 3.770173578e-07 1.854951006e-05 )
( 9.699682778e-06 -6.430730082e-06 -9.615027352e-08 8.464276107e-06 2.339711642e-07 1.706003968e-05 )
( 1.011932363e-05 -6.200113148e-06 -1.263078815e-07 9.172247701e-06 2.938514001e-07 1.77404836e-05 )
( 9.292557479e-06 -6.566355296e-06 -6.368058791e-08 7.887579159e-06 1.783469656e-07 1.627771417e-05 )
( 8.529500519e-06 -6.538066827e-06 -1.690563067e-08 7.021506917e-06 1.279477857e-07 1.443142537e-05 )
( 8.592227459e-06 -6.532662155e-06 -1.938176553e-08 7.112480944e-06 1.267954701e-07 1.468706068e-05 )
( 1.172875e-05 -5.580053312e-06 -1.694246379e-07 1.17414429e-05 4.164180325e-07 1.980950401e-05 )
( 1.657803114e-05 -6.542569281e-06 1.55656501e-08 1.598470408e-05 2.73557788e-07 2.290844895e-05 )
( 3.196569742e-05 -1.248522494e-05 5.135478887e-07 2.455093272e-05 2.964198664e-08 2.655098979e-05 )
( 5.357356713e-05 -2.115811185e-05 7.427031505e-07 3.187108086e-05 -1.846199353e-07 3.087445657e-05 )
( 1.349709237e-05 -5.663324373e-06 -1.127278821e-07 1.372815314e-05 3.979221219e-07 2.116345058e-05 )
( 6.740334356e-06 -5.556085853e-06 7.288900594e-10 5.259513273e-06 5.38503464e-08 1.077932211e-05 )
( 7.717450899e-06 -6.187857252e-06 -2.542089872e-09 6.141920949e-06 8.983226962e-08 1.268518099e-05 )
( 6.736716387e-06 -5.552639323e-06 9.720199756e-09 5.280496225e-06 5.00762809e-08 1.088799308e-05 )
( 7.695271051e-06 -6.161485999e-06 4.056416092e-09 6.149521596e-06 8.200111523e-08 1.277207775e-05 )
( 5.656123903e-06 -4.744605121e-06 9.306267756e-09 4.359491413e-06 2.540267907e-08 8.84470137e-06 )
( 4.444112164e-06 -3.774202469e-06 1.144947248e-08 3.394949317e-06 7.979171102e-09 6.780433068e-06 )
( 3.221511633e-06 -2.75873299e-06 9.32112254e-09 2.445834525e-06 1.24311228e-10 4.75766592e-06 )
( 3.200111678e-06 -2.735630915e-06 3.797475223e-09 2.419838893e-06 2.872744265e-09 4.706381787e-06 )
( 1.071153747e-05 -5.757963208e-06 -1.644046677e-07 1.035608057e-05 3.574041614e-07 1.89931834e-05 )
( 1.006565435e-05 -6.016103725e-06 -1.269229557e-07 9.283622603e-06 2.802020447e-07 1.815562791e-05 )
( 9.27581732e-06 -6.444212431e-06 -6.432464517e-08 7.955615729e-06 1.653658757e-07 1.667494871e-05 )
( 9.542354746e-06 -6.301638223e-06 -8.441879373e-08 8.441271348e-06 2.077878491e-07 1.729038559e-05 )
( 8.846890523e-06 -6.460999884e-06 -4.256360597e-08 7.502438166e-06 1.273958077e-07 1.578258525e-05 )
( 8.624590919e-06 -6.476873295e-06 -2.81106427e-08 7.202034794e-06 1.208648825e-07 1.502796567e-05 )
( 7.713043487e-06 -6.139690413e-06 5.533483893e-09 6.237405159e-06 7.740953833e-08 1.303614408e-05 )
( 7.605256087e-06 -6.094066975e-06 1.161764995e-08 6.161740203e-06 6.297026545e-08 1.299167161e-05 )
( 1.079512913e-05 -5.579615845e-06 -1.346300422e-07 1.04998835e-05 3.092471559e-07 1.960028931e-05 )
( 2.89718555e-05 -1.092688763e-05 3.348885116e-07 2.22143135e-05 8.4562366e-08 2.603391295e-05 )
( 1.356703433e-05 -5.550386959e-06 -4.973724543e-08 1.366826655e-05 2.288826266e-07 2.237907393e-05 )
( 1.657366374e-05 -6.354306606e-06 2.806833699e-08 1.582237564e-05 1.99570394e-07 2.354753815e-05 )
( 1.279136177e-05 -5.553853043e-06 -1.149459194e-07 1.291882654e-05 3.415009076e-07 2.118586781e-05 )
( 5.108932237e-05 -1.936925764e-05 6.529498933e-07 2.949826194e-05 -1.413647652e-07 2.980250792e-05 )
( 7.348474173e-05 -2.73353653e-05 5.022112646e-07 3.394397572e-05 -1.313685942e-07 3.469831427e-05 )
( 5.621178389e-06 -4.724605333e-06 1.512487025e-08 4.354969406e-06 2.219200468e-08 8.912231351e-06 )
( 6.707449757e-06 -5.535165201e-06 1.551948081e-08 5.281515769e-06 4.398508935e-08 1.099519977e-05 )
( 5.621808668e-06 -4.73006321e-06 2.372161312e-08 4.37530116e-06 1.679076789e-08 9.004867934e-06 )
( 6.7007295e-06 -5.52714846e-06 2.21484413e-08 5.29701947e-06 3.672995419e-08 1.109325967e-05 )
( 4.456714578e-06 -3.790617029e-06 1.84029183e-08 3.418303322e-06 4.793659247e-09 6.849081728e-06 )
( 3.235883469e-06 -2.775553412e-06 1.436225805e-08 2.46532727e-06 -2.579449987e-09 4.804910986e-06 )
( 2.095304581e-06 -1.807357421e-06 8.388386874e-09 1.589714998e-06 -3.46793616e-09 2.99063845e-06 )
( 2.076580586e-06 -1.788856935e-06 4.452281654e-09 1.570888799e-06 -1.205330058e-09 2.960773827e-06 )
( 1.027936014e-05 -5.774590136e-06 -1.342426827e-07 9.722169125e-06 2.899409424e-07 1.888471343e-05 )
( 9.656077964e-06 -6.070684321e-06 -8.883297653e-08 8.713242096e-06 2.157239294e-07 1.793478441e-05 )
( 8.789005733e-06 -6.362307431e-06 -3.723225461e-08 7.517733138e-06 1.106785135e-07 1.609735591e-05 )
( 9.176333151e-06 -6.288581972e-06 -5.116367063e-08 7.95066444e-06 1.469504411e-07 1.703968519e-05 )
( 8.527417776e-06 -6.459841188e-06 -2.210958705e-08 7.095308774e-06 9.459972716e-08 1.507148863e-05 )
( 8.384909961e-06 -6.394433058e-06 -1.609434008e-08 7.008447483e-06 7.666442059e-08 1.497954418e-05 )
( 7.785327398e-06 -6.152255992e-06 4.351008442e-09 6.358029623e-06 6.490089532e-08 1.34927086e-05 )
( 6.639063486e-06 -5.490688181e-06 2.602948612e-08 5.283242899e-06 2.729505866e-08 1.116535805e-05 )
( 6.619677151e-06 -5.478672847e-06 2.989162695e-08 5.304019396e-06 1.913502956e-08 1.126212192e-05 )
( 9.906802916e-06 -5.695441814e-06 -7.694758608e-08 9.186644093e-06 2.108218951e-07 1.901586984e-05 )
( 1.044794681e-05 -5.471849363e-06 -1.097063134e-07 1.010819506e-05 2.479307284e-07 1.982308095e-05 )
( 9.8769533e-06 -5.828402664e-06 -9.828811187e-08 9.239200153e-06 2.327650748e-07 1.86102734e-05 )
( 2.326739559e-05 -8.518147297e-06 1.725844641e-07 1.867309948e-05 9.686149838e-08 2.520545058e-05 )
( 4.843990246e-05 -1.75141322e-05 5.278765229e-07 2.700031655e-05 -9.456225314e-08 2.88323281e-05 )
( 1.144665475e-05 -5.139763744e-06 -3.406644211e-08 1.137660911e-05 1.390809388e-07 2.174052315e-05 )
( 1.10022338e-05 -5.335403785e-06 -9.458913297e-08 1.087258988e-05 2.276675275e-07 2.062338899e-05 )
( 1.560882447e-05 -6.032848887e-06 4.240944307e-08 1.486647852e-05 1.450872986e-07 2.353881609e-05 )
( 7.359681331e-05 -2.577712803e-05 5.434520176e-07 3.142040441e-05 -1.620394556e-07 3.383399235e-05 )
( 8.38802589e-05 -2.88503179e-05 5.328113843e-07 3.234935502e-05 -6.374787631e-08 3.839441706e-05 )
( 4.438651104e-06 -3.78286154e-06 2.42688607e-08 3.420608436e-06 6.058467061e-10 6.90231991e-06 )
( 5.608957963e-06 -4.724102382e-06 2.9233302e-08 4.381829058e-06 1.052079046e-08 9.096124813e-06 )
( 4.444470051e-06 -3.792521284e-06 3.164885243e-08 3.4382183e-06 -5.259393809e-09 6.976435543e-06 )
( 5.60478793e-06 -4.724336122e-06 3.587464192e-08 4.396732038e-06 3.310211216e-09 9.181996575e-06 )
( 3.250858981e-06 -2.792447276e-06 2.106416375e-08 2.485148116e-06 -6.586925672e-09 4.853053724e-06 )
( 2.112286666e-06 -1.824708761e-06 1.248649451e-08 1.60744753e-06 -6.096295468e-09 3.02275339e-06 )
( 1.153544872e-06 -9.999921531e-07 4.987355418e-09 8.754856822e-07 -2.975382385e-09 1.582530331e-06 )
( 1.137772415e-06 -9.855883718e-07 2.624638729e-09 8.620584708e-07 -1.367199465e-09 1.562848411e-06 )
( 9.230292562e-06 -6.100582141e-06 -4.870404879e-08 8.143514606e-06 1.507578986e-07 1.758343569e-05 )
( 8.337792679e-06 -6.328944437e-06 -1.343806666e-08 7.029147127e-06 6.251745077e-08 1.525133302e-05 )
( 8.291632184e-06 -6.341855624e-06 -1.3910185e-08 6.954927812e-06 6.469547031e-08 1.503064141e-05 )
( 8.846282071e-06 -6.25568282e-06 -2.839182933e-08 7.668351827e-06 1.081504166e-07 1.675725252e-05 )
( 7.745264156e-06 -6.136726824e-06 4.243855045e-09 6.365688932e-06 4.937560405e-08 1.363958836e-05 )
( 7.734734027e-06 -6.142382972e-06 4.443211576e-09 6.376181318e-06 4.009234544e-08 1.372792667e-05 )
( 6.551244041e-06 -5.441621852e-06 3.157293449e-08 5.282751317e-06 9.994515437e-09 1.12873513e-05 )
( 5.560294085e-06 -4.698972589e-06 3.931901205e-08 4.389865808e-06 -3.771982282e-09 9.243284694e-06 )
( 5.538026016e-06 -4.692646598e-06 4.236461137e-08 4.404347237e-06 -1.050210585e-08 9.315851457e-06 )
( 9.207812582e-06 -5.939667517e-06 -3.611907218e-08 8.238346709e-06 1.421225875e-07 1.806940236e-05 )
( 9.377318747e-06 -5.767985385e-06 -3.408479898e-08 8.472610716e-06 1.425388945e-07 1.866356433e-05 )
( 9.964161109e-06 -5.506262369e-06 -7.149083814e-08 9.484709153e-06 1.843891795e-07 1.958820758e-05 )
( 4.620396794e-05 -1.589753447e-05 4.113764476e-07 2.475503425e-05 -6.526375529e-08 2.806088196e-05 )
( 2.419227894e-05 -8.534368135e-06 1.600368478e-07 1.840432378e-05 3.897409684e-08 2.566279363e-05 )
( 1.786440953e-05 -6.544279131e-06 1.122385527e-07 1.592784247e-05 6.977236922e-08 2.464984027e-05 )
( 7.309920329e-05 -2.413208676e-05 5.099471991e-07 2.900852087e-05 -1.684696258e-07 3.263916369e-05 )
( 1.00833995e-05 -5.192011486e-06 -3.344596422e-08 9.754267012e-06 1.125468998e-07 2.063670217e-05 )
( 1.012339817e-05 -5.072477961e-06 1.468159372e-09 9.657785995e-06 8.456611766e-08 2.106042666e-05 )
( 1.063337913e-05 -5.193522611e-06 -6.637678496e-08 1.044593864e-05 1.600872679e-07 2.08762267e-05 )
( 1.106409127e-05 -4.944346983e-06 8.603828761e-09 1.093365245e-05 8.879321456e-08 2.198839502e-05 )
( 9.9410845e-06 -5.389764283e-06 -4.641827545e-08 9.370066437e-06 1.389325064e-07 1.99854112e-05 )
( 1.232165596e-05 -5.062834134e-06 5.259632019e-08 1.20783161e-05 6.748684456e-08 2.288908945e-05 )
( 8.557025285e-05 -2.728822437e-05 5.937740752e-07 2.95405498e-05 -1.141297901e-07 3.814904267e-05 )
( 8.1773891e-05 -2.577626947e-05 7.071770938e-07 2.826515447e-05 -3.393926207e-08 4.232078936e-05 )
( 3.245372454e-06 -2.792925216e-06 2.66107687e-08 2.490983434e-06 -1.105413627e-08 4.891666777e-06 )
( 4.442057616e-06 -3.794790018e-06 3.754661293e-08 3.447702056e-06 -1.151660634e-08 7.048475254e-06 )
( 3.25419478e-06 -2.803468306e-06 3.285905592e-08 2.504790018e-06 -1.641471847e-08 4.945453838e-06 )
( 4.441901183e-06 -3.799160368e-06 4.331104719e-08 3.460666449e-06 -1.761206647e-08 7.118239409e-06 )
( 2.12238524e-06 -1.835483886e-06 1.741015332e-08 1.618988904e-06 -9.502273635e-09 3.04684454e-06 )
( 1.170031965e-06 -1.015538487e-06 7.335068997e-09 8.902292734e-07 -4.676762977e-09 1.605178795e-06 )
( 4.770554369e-07 -4.148963626e-07 1.70759118e-09 3.624700469e-07 -1.179807363e-09 6.294366131e-07 )
( 4.653458348e-07 -4.046521553e-07 8.264856577e-10 3.533741619e-07 -5.300072603e-10 6.156154768e-07 )
( 8.829038052e-06 -6.151083653e-06 -1.071589395e-08 7.696937246e-06 1.008618753e-07 1.714381142e-05 )
( 7.677012945e-06 -6.097140158e-06 4.256419661e-09 6.391703209e-06 2.835141544e-08 1.393370894e-05 )
( 8.362569133e-06 -6.275727628e-06 -1.057403587e-08 7.103811186e-06 6.435070787e-08 1.563967999e-05 )
( 7.766515409e-06 -6.130036581e-06 1.117554493e-09 6.466453215e-06 3.664900561e-08 1.398774748e-05 )
( 8.46347848e-06 -6.263775958e-06 -7.885159192e-09 7.236354577e-06 6.831115229e-08 1.600235555e-05 )
( 6.539989954e-06 -5.428820259e-06 2.915640884e-08 5.314941518e-06 3.913098734e-09 1.140901622e-05 )
( 6.511313131e-06 -5.404368949e-06 2.913557218e-08 5.320765467e-06 -4.88434182e-10 1.142645488e-05 )
( 5.486985629e-06 -4.668023394e-06 4.389007557e-08 4.398378223e-06 -1.696437479e-08 9.323115592e-06 )
( 4.411964255e-06 -3.783400416e-06 4.653603014e-08 3.45812532e-06 -2.265763221e-08 7.16934619e-06 )
( 4.393550626e-06 -3.780698989e-06 4.906648599e-08 3.47175046e-06 -2.726330983e-08 7.229987659e-06 )
( 8.903153685e-06 -5.982392395e-06 -5.744045239e-09 7.879678378e-06 1.046120062e-07 1.769698792e-05 )
( 8.895687643e-06 -5.859339126e-06 6.858685619e-09 7.935355825e-06 8.218908931e-08 1.812394476e-05 )
( 9.183600014e-06 -5.608538231e-06 -1.393888382e-08 8.433320545e-06 9.900369946e-08 1.904890087e-05 )
( 3.785594527e-05 -1.243034967e-05 2.489150575e-07 2.085001324e-05 -5.62886413e-08 2.695943112e-05 )
( 7.257084508e-05 -2.237088665e-05 4.333601851e-07 2.64626251e-05 -1.540337706e-07 3.145760638e-05 )
( 2.246332588e-05 -7.820627616e-06 1.247085635e-07 1.700544453e-05 -8.867566237e-09 2.557143125e-05 )
( 1.397451979e-05 -5.262751074e-06 8.444823152e-08 1.305999103e-05 -1.772741065e-09 2.401323582e-05 )
( 8.684816567e-05 -2.563166709e-05 5.901127906e-07 2.690396104e-05 -1.544536019e-07 3.761312473e-05 )
( 9.163201867e-06 -5.245966349e-06 1.192469767e-08 8.565234566e-06 6.1192857e-08 2.005905117e-05 )
( 9.338763448e-06 -5.427919405e-06 -1.1246577e-08 8.580826943e-06 8.714815891e-08 1.961939415e-05 )
( 9.406954632e-06 -5.052364031e-06 2.758637407e-08 8.781736142e-06 4.946518217e-08 2.06810073e-05 )
( 1.041330506e-05 -4.887705472e-06 3.497409296e-08 1.015784073e-05 5.585618723e-08 2.175948248e-05 )
( 1.191564206e-05 -4.852468464e-06 8.089291725e-08 1.160608554e-05 2.155901413e-08 2.313970253e-05 )
( 1.054879522e-05 -4.804704076e-06 7.427639304e-08 1.013198289e-05 2.578159908e-08 2.224791388e-05 )
( 8.214577974e-05 -2.41927919e-05 6.918028248e-07 2.592275814e-05 -7.581249406e-08 4.227537647e-05 )
( 6.631662109e-05 -1.92183179e-05 7.499949675e-07 2.33649771e-05 -4.646904728e-08 4.551594975e-05 )
( 2.123217882e-06 -1.839196102e-06 2.188119552e-08 1.625070468e-06 -1.324247734e-08 3.071995025e-06 )
( 3.257818207e-06 -2.809653097e-06 3.731086551e-08 2.514270591e-06 -2.113255171e-08 4.997516953e-06 )
( 2.132463123e-06 -1.848453849e-06 2.625265871e-08 1.634836735e-06 -1.710411013e-08 3.106225904e-06 )
( 3.261058737e-06 -2.815780817e-06 4.210649251e-08 2.524702268e-06 -2.58046029e-08 5.049416814e-06 )
( 1.171895065e-06 -1.01795672e-06 1.078009326e-08 8.929926025e-07 -7.186162332e-09 1.609493438e-06 )
( 4.868791166e-07 -4.239345515e-07 2.83116397e-09 3.708612724e-07 -2.091166573e-09 6.416696579e-07 )
( 1.328317012e-07 -1.158803116e-07 3.596579701e-10 1.012840301e-07 -2.597619619e-10 1.691440445e-07 )
( 1.310025226e-07 -1.142510087e-07 1.062713199e-11 9.98298475e-08 1.556279931e-11 1.677594668e-07 )
( 8.467677617e-06 -6.18639524e-06 1.005479877e-08 7.265546174e-06 6.545738529e-08 1.637343848e-05 )
( 8.496353075e-06 -6.221393505e-06 4.13749035e-10 7.277481927e-06 7.074858388e-08 1.631872328e-05 )
( 6.525096978e-06 -5.415393844e-06 2.409708699e-08 5.367779522e-06 -2.935138799e-09 1.162377976e-05 )
( 7.740929505e-06 -6.090361694e-06 2.522375198e-09 6.48869036e-06 3.072095822e-08 1.42540348e-05 )
( 6.493018191e-06 -5.407795015e-06 2.553833234e-08 5.323482128e-06 -3.108436175e-09 1.151498509e-05 )
( 7.812644071e-06 -6.084138477e-06 4.8643094e-09 6.56973134e-06 3.719406649e-08 1.457166582e-05 )
( 5.3713743e-06 -4.599621207e-06 4.379077012e-08 4.345667548e-06 -2.263778498e-08 9.210881217e-06 )
( 5.360117484e-06 -4.597618499e-06 4.206080817e-08 4.354161319e-06 -2.452636849e-08 9.223730558e-06 )
( 4.36107257e-06 -3.772488526e-06 4.941569998e-08 3.482924058e-06 -3.079376754e-08 7.238916623e-06 )
( 3.242920229e-06 -2.807320698e-06 4.437716683e-08 2.52481027e-06 -2.896091722e-08 5.089415936e-06 )
( 3.228804644e-06 -2.806090379e-06 4.626919292e-08 2.535663953e-06 -3.190492492e-08 5.138559573e-06 )
( 8.498642273e-06 -6.103888609e-06 1.353358492e-08 7.385131994e-06 6.923153251e-08 1.677458749e-05 )
( 8.435158634e-06 -6.058050531e-06 2.22060379e-08 7.371400898e-06 5.749556919e-08 1.681168578e-05 )
( 8.465402061e-06 -6.000096619e-06 2.788014086e-08 7.422418548e-06 4.850172886e-08 1.715803046e-05 )
( 8.440999409e-06 -5.960544513e-06 3.387570402e-08 7.403554264e-06 3.695587125e-08 1.722795241e-05 )
( 8.806548067e-06 -5.684788903e-06 1.731818955e-08 7.929343155e-06 5.634614553e-08 1.857409006e-05 )
( 7.242085849e-05 -2.073640826e-05 3.748929203e-07 2.407719148e-05 -1.313189131e-07 3.042216304e-05 )
( 2.907613816e-05 -9.643168596e-06 1.700279739e-07 1.828956374e-05 -7.934222879e-08 2.629144728e-05 )
( 4.231298954e-05 -1.303357476e-05 2.584530137e-07 2.034480531e-05 -9.320369543e-08 2.695084186e-05 )
( 8.735879237e-05 -2.388651228e-05 5.378732908e-07 2.448391569e-05 -1.698721519e-07 3.681828093e-05 )
( 1.731315388e-05 -6.023012247e-06 6.584735246e-08 1.42166291e-05 -7.101177601e-08 2.512099127e-05 )
( 1.114107363e-05 -4.757304851e-06 8.574652099e-08 1.081173286e-05 -3.712423258e-09 2.284842049e-05 )
( 1.157373663e-05 -4.749226719e-06 7.562929483e-08 1.1117746e-05 -3.56532297e-08 2.326340473e-05 )
( 1.376487853e-05 -5.088127182e-06 7.077927222e-08 1.265540777e-05 -4.841403722e-08 2.426799256e-05 )
( 8.170797082e-05 -2.252947161e-05 6.27242855e-07 2.381588456e-05 -1.045996854e-07 4.198667739e-05 )
( 8.725697626e-06 -5.57223666e-06 2.907897922e-08 7.931043911e-06 4.287225153e-08 1.883351979e-05 )
( 8.700572835e-06 -5.390880688e-06 4.282630073e-08 7.949790415e-06 3.117013136e-08 1.934795364e-05 )
( 8.722209714e-06 -5.224897905e-06 5.454579721e-08 8.084532965e-06 1.578448483e-08 1.990804958e-05 )
( 9.279860024e-06 -4.853443443e-06 6.20705336e-08 8.845398952e-06 1.685166851e-08 2.123361628e-05 )
( 9.671245607e-06 -4.681577138e-06 8.228681025e-08 9.221521395e-06 -6.288819687e-09 2.194238732e-05 )
( 6.446375482e-05 -1.776536192e-05 6.631934752e-07 2.18246023e-05 -5.541513559e-08 4.570388046e-05 )
( 5.129601414e-05 -1.426335166e-05 5.951315529e-07 2.07441808e-05 -3.308221608e-08 4.488550985e-05 )
( 1.171334361e-06 -1.018886792e-06 1.340797517e-08 8.949891708e-07 -9.438588577e-09 1.617798148e-06 )
( 2.138084938e-06 -1.855111691e-06 2.922495845e-08 1.642637244e-06 -2.016380307e-08 3.139060709e-06 )
( 1.178273237e-06 -1.025205734e-06 1.600202282e-08 9.008853681e-07 -1.173590736e-08 1.63585787e-06 )
( 2.142947324e-06 -1.861196893e-06 3.225904166e-08 1.650250738e-06 -2.303250923e-08 3.173022833e-06 )
( 4.858025022e-07 -4.23168359e-07 4.390888098e-09 3.702382116e-07 -3.260735015e-09 6.389626606e-07 )
( 1.414252608e-07 -1.235374327e-07 6.288393695e-10 1.082106422e-07 -5.265248237e-10 1.806598817e-07 )
( 7.950228792e-06 -6.114873031e-06 1.806534478e-08 6.721928457e-06 3.849309138e-08 1.518755926e-05 )
( 7.862976418e-06 -6.136012416e-06 1.141274542e-08 6.647142527e-06 3.210400479e-08 1.486426481e-05 )
( 5.401852832e-06 -4.637984603e-06 3.427959427e-08 4.408878794e-06 -2.166494362e-08 9.377662536e-06 )
( 6.525726349e-06 -5.43062697e-06 2.075600491e-08 5.384196356e-06 2.03581596e-11 1.176956357e-05 )
( 5.362840056e-06 -4.606135462e-06 3.725281061e-08 4.368743248e-06 -2.347016093e-08 9.282794053e-06 )
( 6.712155482e-06 -5.528196198e-06 1.977827324e-08 5.555610642e-06 4.801710585e-09 1.2215075e-05 )
( 4.281034762e-06 -3.727184321e-06 4.77752593e-08 3.455503702e-06 -3.310392316e-08 7.142859431e-06 )
( 4.28081421e-06 -3.734163784e-06 4.48815598e-08 3.467858733e-06 -3.320147002e-08 7.142252343e-06 )
( 3.211571084e-06 -2.810594196e-06 4.638002338e-08 2.558162578e-06 -3.391798842e-08 5.152131052e-06 )
( 2.133822363e-06 -1.857738312e-06 3.374629998e-08 1.651678531e-06 -2.486205908e-08 3.201386107e-06 )
( 2.123983904e-06 -1.857125426e-06 3.504781176e-08 1.659176064e-06 -2.660281062e-08 3.237680176e-06 )
( 7.847049346e-06 -6.079208106e-06 2.775570351e-08 6.672564723e-06 2.944250177e-08 1.518201134e-05 )
( 7.911113244e-06 -6.045019745e-06 3.383020797e-08 6.740269328e-06 2.71834697e-08 1.550353954e-05 )
( 7.826231922e-06 -6.017391115e-06 4.111361207e-08 6.696694527e-06 9.635614084e-09 1.552451795e-05 )
( 8.399425496e-06 -5.864559171e-06 3.854180264e-08 7.408320471e-06 2.832503831e-08 1.759131192e-05 )
( 7.909326996e-06 -5.976797638e-06 4.536709497e-08 6.755404229e-06 6.922012297e-09 1.589085696e-05 )
( 8.339135093e-06 -5.809883987e-06 4.38901786e-08 7.393646683e-06 2.192213344e-08 1.764601438e-05 )
( 6.471799861e-05 -1.734081525e-05 3.098651007e-07 2.086679888e-05 -1.209912597e-07 2.86282193e-05 )
( 8.759107732e-05 -2.196589048e-05 4.867229109e-07 2.202030555e-05 -1.606775726e-07 3.618709889e-05 )
( 2.301034328e-05 -7.472577181e-06 1.024230087e-07 1.536123818e-05 -9.923961386e-08 2.577228952e-05 )
( 4.061793516e-05 -1.215790144e-05 2.318764132e-07 1.891390275e-05 -1.065825828e-07 2.665832653e-05 )
( 8.077689563e-05 -2.069939183e-05 5.846155204e-07 2.166121885e-05 -1.248208292e-07 4.186674414e-05 )
( 1.758901453e-05 -5.956097993e-06 4.883425575e-08 1.39095373e-05 -9.518949184e-08 2.534222222e-05 )
( 1.448662169e-05 -5.183582289e-06 3.619529565e-08 1.243498627e-05 -9.22082819e-08 2.470592517e-05 )
( 1.271211022e-05 -4.838632321e-06 6.275980269e-08 1.162550871e-05 -7.833505578e-08 2.404912811e-05 )
( 9.827192116e-06 -4.607883966e-06 7.767607713e-08 9.590059562e-06 -3.187626518e-08 2.224875971e-05 )
( 1.021611206e-05 -4.503246601e-06 6.693457522e-08 9.571646842e-06 -7.135173519e-08 2.282653804e-05 )
( 6.239832146e-05 -1.627349593e-05 5.765203923e-07 2.0298241e-05 -6.372580685e-08 4.593703488e-05 )
( 8.235714631e-06 -5.732981208e-06 5.647954993e-08 7.358181847e-06 1.057279153e-08 1.781370156e-05 )
( 8.283932402e-06 -5.770156349e-06 5.029338723e-08 7.389103303e-06 1.590923304e-08 1.780780258e-05 )
( 8.173939023e-06 -5.658570444e-06 6.322729007e-08 7.330190329e-06 6.497000715e-09 1.808357774e-05 )
( 8.193746908e-06 -5.580988727e-06 6.587170276e-08 7.370072581e-06 3.521736458e-09 1.831412737e-05 )
( 8.206366147e-06 -5.422231425e-06 6.745649017e-08 7.472147445e-06 -6.577779654e-09 1.889821397e-05 )
( 8.169052307e-06 -5.529222108e-06 6.923708895e-08 7.415246273e-06 -4.124304454e-09 1.860213706e-05 )
( 8.84254041e-06 -4.920410902e-06 7.305320793e-08 8.299058209e-06 -1.867803467e-09 2.08643396e-05 )
( 9.115744433e-06 -4.720322522e-06 7.883049591e-08 8.729015462e-06 -1.722410481e-08 2.156592927e-05 )
( 4.904350135e-05 -1.306710965e-05 5.062796049e-07 1.971140591e-05 -3.987688402e-08 4.513930253e-05 )
( 3.498349179e-05 -9.867277186e-06 2.265248753e-07 1.934196916e-05 1.134019314e-07 3.941413524e-05 )
( 4.817210311e-07 -4.202228467e-07 5.691359384e-09 3.681086014e-07 -4.3467967e-09 6.35693425e-07 )
( 1.182973733e-06 -1.030187946e-06 1.771632618e-08 9.060793218e-07 -1.343258749e-08 1.652713536e-06 )
( 4.854265399e-07 -4.233881725e-07 6.839672828e-09 3.708285874e-07 -5.353471444e-09 6.427258086e-07 )
( 1.187572252e-06 -1.034849561e-06 1.928288995e-08 9.109063512e-07 -1.490310453e-08 1.671540531e-06 )
( 1.354334671e-07 -1.18417951e-07 1.25088373e-09 1.037249291e-07 -9.667654455e-10 1.714330011e-07 )
( 7.063254088e-06 -5.724844414e-06 2.478389405e-08 5.892983609e-06 1.119791193e-08 1.317921487e-05 )