/*--------------------------------*- C++ -*----------------------------------*\
  =========                 |
  \\      /  F ield         | OpenFOAM: The Open Source CFD Toolbox
   \\    /   O peration     | Website:  https://openfoam.org
    \\  /    A nd           | Version:  8
     \\/     M anipulation  |
\*---------------------------------------------------------------------------*/






FoamFile
{
    version     2.0;
    format      ascii;
    class       volScalarField;
    location    "0";
    object      V;
}
// * * * * * * * * * * * * * * * * * * * * * * * * * * * * * * * * * * * * * //

dimensions      [0 3 0 0 0 0 0];


internalField   nonuniform List<scalar> 
17348
(
2.347889894e-05
2.341710808e-05
2.187138189e-05
8.024927144e-05
2.375935493e-05
2.292724104e-05
8.106173173e-05
2.428129512e-05
2.428326661e-05
2.38667574e-05
1.396266572e-05
8.217967463e-05
8.083776037e-05
2.281230828e-05
2.463586287e-05
2.357166496e-05
1.08587558e-05
1.06840952e-05
2.477546904e-05
7.765381486e-05
2.497071421e-05
7.945094731e-05
2.408375329e-05
2.4776219e-05
1.413792905e-05
1.105483557e-05
9.09146353e-06
8.981963243e-06
8.416936489e-05
2.53756856e-05
8.215974249e-05
2.364528642e-05
0.0002658302802
1.466100677e-05
2.461069857e-05
1.119107869e-05
9.231529335e-06
7.609412637e-06
7.544473107e-06
8.373818733e-05
2.570779895e-05
2.538541953e-05
2.581777885e-05
2.529969772e-05
8.348207075e-05
0.0002514445285
8.384028348e-05
1.132553266e-05
1.147340945e-05
1.489631443e-05
9.31886527e-06
7.709015493e-06
6.367297231e-06
6.332496667e-06
8.409483303e-05
2.430483198e-05
2.503689337e-05
2.608479665e-05
1.612362897e-05
7.95535772e-05
0.000258455202
0.0002686117152
8.760786164e-05
9.424676165e-06
1.167938192e-05
9.517497426e-06
1.189531445e-05
7.762608976e-06
6.437652771e-06
5.326781546e-06
5.312052929e-06
2.596078248e-05
2.509302325e-05
2.181541426e-05
2.559142095e-05
2.005995521e-05
1.215272253e-05
1.265475893e-05
8.083796313e-05
0.0002531183952
0.0002643049821
0.0002801861695
8.37651256e-05
7.845462553e-06
9.668361838e-06
7.90087383e-06
9.805712896e-06
6.468168193e-06
5.375997988e-06
4.455499016e-06
4.453842909e-06
2.653370386e-05
2.445228869e-05
2.195210199e-05
2.208334615e-05
1.092755022e-05
1.462320456e-05
1.000508029e-05
1.033005231e-05
7.817737295e-05
0.0002509827644
7.687009133e-05
7.910483172e-05
7.683181455e-05
0.0002744069799
0.0002925244762
6.532682e-06
8.011542096e-06
6.5629361e-06
8.095712261e-06
5.390922616e-06
4.48945062e-06
3.726170811e-06
3.732747551e-06
2.546009345e-05
2.260940731e-05
1.301783778e-05
2.276653202e-05
8.978422152e-06
9.682171523e-06
1.171656352e-05
8.250451585e-06
8.456189102e-06
2.327533443e-05
2.443876906e-05
2.294534773e-05
0.0002680517437
0.0002706406237
8.455891543e-05
8.645099183e-05
7.864592819e-05
0.0002879001954
0.0003058685721
5.440836059e-06
6.644181091e-06
5.454418982e-06
6.692684131e-06
4.494026989e-06
3.749121637e-06
3.115840037e-06
3.127328697e-06
2.377571818e-05
1.030784071e-05
9.970354405e-06
1.375396901e-05
7.762836223e-06
8.233399957e-06
9.438108988e-06
6.812960541e-06
6.938989567e-06
2.586451381e-05
2.483375111e-05
2.370138301e-05
0.0002575226529
8.109411747e-05
7.874644106e-05
0.0002822093083
2.456906066e-05
2.512980682e-05
2.521753427e-05
2.614193313e-05
2.416614648e-05
9.122286092e-05
0.0003015594199
0.0003198603636
4.53236001e-06
5.514055691e-06
4.535126778e-06
5.538935766e-06
3.747006717e-06
3.130890425e-06
2.605209934e-06
2.6193559e-06
1.443658242e-05
8.677712999e-06
1.046929618e-05
8.455153184e-06
1.069071774e-05
6.677442238e-06
6.989796496e-06
7.639245329e-06
5.632501005e-06
5.705759651e-06
1.478818332e-05
1.512928957e-05
2.72093316e-05
0.0002773054525
0.0002792827988
7.996836713e-05
8.453874994e-05
0.0002973388959
2.800531536e-05
2.58113589e-05
2.709889005e-05
2.567484377e-05
2.508757416e-05
2.526934611e-05
0.0003162058425
0.0003344429846
3.776191308e-06
4.578848264e-06
3.772160646e-06
4.588358685e-06
3.124620277e-06
2.614616125e-06
2.178076588e-06
2.193371673e-06
1.090222962e-05
1.073428239e-05
7.304060216e-06
8.800275889e-06
7.161385734e-06
8.956488309e-06
5.720209894e-06
5.925882791e-06
6.209532132e-06
4.661157671e-06
4.699937376e-06
1.095711609e-05
1.112695674e-05
1.118529285e-05
1.13306234e-05
1.542860319e-05
0.0002675188793
8.228214368e-05
8.515818312e-05
0.0002923991362
9.225739177e-05
2.519027267e-05
2.549349913e-05
2.553856053e-05
0.0003123887265
1.572683919e-05
1.621009148e-05
1.727757581e-05
2.973819985e-05
2.308440267e-05
0.0003313659315
0.0003494065726
3.146609183e-06
3.80413131e-06
3.138519481e-06
3.803899665e-06
2.605936125e-06
2.183482071e-06
9.130920161e-06
9.002049072e-06
6.146923857e-06
7.396184164e-06
6.059375742e-06
7.504288065e-06
4.883924075e-06
5.01818095e-06
5.066243397e-06
3.860515284e-06
3.877177042e-06
9.183203405e-06
9.297094284e-06
9.35063189e-06
1.139463769e-05
9.450343483e-06
1.156985956e-05
0.0002899817784
0.0002906381966
8.990823046e-05
8.417641901e-05
0.0003088756279
2.678457762e-05
2.689281878e-05
2.613745992e-05
2.488552734e-05
2.398984419e-05
0.0003282361787
1.18456428e-05
1.166416858e-05
1.196814012e-05
1.223886423e-05
1.299861086e-05
1.247063359e-05
2.15470858e-05
2.331405915e-05
0.0003469189028
0.0003644752129
2.622292961e-06
3.161798157e-06
2.611990837e-06
3.155635666e-06
2.173579326e-06
7.643374082e-06
7.546347673e-06
5.17245368e-06
6.215308895e-06
5.122576027e-06
6.288049871e-06
4.158631295e-06
4.245488664e-06
4.146910844e-06
3.199616539e-06
3.202461527e-06
7.689462534e-06
7.763618376e-06
7.810013595e-06
9.503008017e-06
7.876602152e-06
9.614744631e-06
0.0002796033983
8.85663344e-05
8.922780256e-05
0.0003047742558
2.76030973e-05
2.708456952e-05
2.833250088e-05
9.315021863e-05
0.0003250847722
2.676933622e-05
2.570388467e-05
2.436839697e-05
2.542424918e-05
0.000344385901
9.813184965e-06
9.689462427e-06
9.908660349e-06
1.007856083e-05
1.059225501e-05
1.509282931e-05
1.024982071e-05
1.163887876e-05
1.404823931e-05
0.000362640477
0.0003798409799
2.185551693e-06
2.628832575e-06
2.174264727e-06
2.619296592e-06
6.395379155e-06
6.323946402e-06
4.352008897e-06
5.222403697e-06
4.327530518e-06
5.269289839e-06
3.533218811e-06
3.588936867e-06
3.403974771e-06
2.653401567e-06
2.647958631e-06
6.433844334e-06
6.479944695e-06
6.518490912e-06
7.918860836e-06
6.561166202e-06
7.987714236e-06
0.0003045984507
0.0003040477634
9.167545515e-05
8.525563116e-05
0.0003223798665
2.778100212e-05
2.636170032e-05
2.893903462e-05
8.648530348e-05
0.0003419017168
2.657527664e-05
2.774888331e-05
1.464095383e-05
1.567594584e-05
0.0003606068972
8.129365798e-06
8.046393923e-06
8.203350568e-06
8.306100709e-06
8.650430953e-06
1.206089854e-05
9.26463034e-06
8.432667865e-06
1.009352341e-05
1.043204541e-05
1.082343378e-05
0.0003776738658
0.001002495958
2.186338138e-06
2.175122208e-06
5.349221067e-06
5.298091548e-06
3.661381335e-06
4.387716519e-06
3.653709342e-06
4.415842094e-06
2.996408208e-06
3.031918569e-06
2.800927642e-06
2.201502777e-06
2.191413606e-06
5.379902768e-06
5.406359229e-06
5.437281504e-06
6.594302872e-06
5.462830324e-06
6.634439365e-06
0.0002943764259
9.621750295e-05
9.846686916e-05
0.0003192332958
9.417576753e-05
9.076406471e-05
0.0003395430713
2.357090251e-05
2.441046735e-05
2.806956185e-05
2.589871909e-05
2.54250936e-05
2.543792184e-05
0.0003587917552
1.672125283e-05
2.164802963e-05
1.1118561e-05
1.145500289e-05
1.172815713e-05
1.209939805e-05
0.000377209015
6.734414488e-06
6.680112599e-06
6.791377819e-06
6.849844772e-06
7.077773271e-06
9.687558854e-06
7.991016054e-06
6.9432882e-06
8.584998591e-06
8.836721029e-06
9.074958559e-06
0.0009988027772
4.472854411e-06
4.437624718e-06
3.080126757e-06
3.686154204e-06
3.083274992e-06
3.70080937e-06
2.537350589e-06
2.559940923e-06
2.309518726e-06
4.496288375e-06
4.509152737e-06
4.533162149e-06
5.488221539e-06
4.546580531e-06
5.509357167e-06
0.0003091977548
0.0003189990241
9.301853574e-05
0.0001040579379
0.0003377294841
9.599311319e-05
2.623180894e-05
2.74667072e-05
2.780827906e-05
0.0003569304025
2.374671674e-05
2.581849505e-05
2.897604208e-05
2.359814486e-05
0.0003747626491
1.31410101e-05
1.250975783e-05
1.176483068e-05
1.527840961e-05
9.285621923e-06
9.509558827e-06
9.726355879e-06
9.963551155e-06
5.578795845e-06
5.544570464e-06
5.622333724e-06
5.651995136e-06
5.800124623e-06
7.816458819e-06
6.849897796e-06
5.720821177e-06
7.279822399e-06
7.467515549e-06
7.603539365e-06
0.0009954784191
3.739135777e-06
3.716191923e-06
2.59099163e-06
3.096568226e-06
2.60081897e-06
3.101691592e-06
2.14596143e-06
2.160439984e-06
3.756194378e-06
3.759812898e-06
3.777831305e-06
4.565554799e-06
3.782789501e-06
4.574330287e-06
0.0003187990458
0.0003093650625
0.000336361314
9.64844579e-05
0.0001013349635
0.000355528273
3.051694603e-05
2.898518603e-05
2.77498414e-05
2.670493276e-05
2.620582221e-05
0.0003746897338
1.444590998e-05
1.643004496e-05
2.142299883e-05
2.449088818e-05
1.065970284e-05
1.025950954e-05
9.482935875e-06
1.036150152e-05
1.218039744e-05
7.753273416e-06
7.898786402e-06
8.069810872e-06
8.216015115e-06
4.621461758e-06
4.601196531e-06
4.654456906e-06
4.665741846e-06
4.759380063e-06
6.33166903e-06
5.843018722e-06
4.716235225e-06
6.157883784e-06
6.298171445e-06
6.366951225e-06
0.0009930377019
0.000372170804
3.125132793e-06
3.111543908e-06
2.179424265e-06
2.6011448e-06
2.19309238e-06
2.5996608e-06
3.136807004e-06
3.134290511e-06
3.147287422e-06
3.796555199e-06
3.146473072e-06
3.797487231e-06
0.0003086883937
0.0003340981276
9.434277974e-05
0.0001032766302
0.0001003534164
0.0003539739904
3.166983021e-05
9.490291434e-05
2.895129151e-05
2.880995453e-05
2.706253699e-05
2.401016369e-05
1.076241626e-05
1.1314794e-05
1.165595877e-05
1.235338503e-05
1.191667735e-05
1.47281921e-05
1.583916995e-05
8.675800918e-06
8.42970777e-06
8.154388894e-06
8.736758367e-06
9.765279158e-06
6.472704303e-06
6.563832536e-06
6.697884388e-06
6.782834684e-06
3.828398638e-06
3.817741772e-06
3.853153251e-06
3.853047646e-06
3.909694105e-06
5.146479871e-06
4.964666232e-06
3.889872819e-06
5.19838843e-06
5.303452227e-06
5.32887484e-06
0.0009914456773
0.0003701944565
0.0003726032031
2.611511324e-06
2.604926811e-06
2.184886822e-06
2.178957671e-06
2.618783473e-06
2.612347856e-06
2.621247764e-06
3.156086814e-06
2.61661957e-06
3.152227254e-06
0.0003214149471
0.0003338629071
0.0003530272886
0.0001039029795
0.0001086778787
9.821963986e-05
3.00624629e-05
2.879898237e-05
2.955780163e-05
3.151264139e-05
2.571438787e-05
2.736797329e-05
2.132243794e-05
2.492458229e-05
9.053026424e-06
9.408531706e-06
9.668654114e-06
1.011837277e-05
9.348310979e-06
1.047885033e-05
1.180712792e-05
1.237330102e-05
1.127391024e-05
7.081408477e-06
6.937168332e-06
6.976785017e-06
7.358786246e-06
7.868375717e-06
5.402880457e-06
5.456573382e-06
5.560917539e-06
5.605111018e-06
3.171424921e-06
3.167283216e-06
3.189771236e-06
3.182916162e-06
3.214665218e-06
4.195461142e-06
4.205077382e-06
3.209548393e-06
4.381168595e-06
4.459969584e-06
4.458244486e-06
0.0009915078932
0.0003683577025
0.0003709516967
2.181997593e-06
2.180552054e-06
2.185773137e-06
2.176985713e-06
2.182621915e-06
2.622980357e-06
2.175597585e-06
2.616372405e-06
0.0003088215206
0.0003327687096
0.000351974177
9.770982795e-05
3.265460553e-05
0.0001085984139
0.0001022468577
2.949830645e-05
2.565252325e-05
2.964312193e-05
2.773159563e-05
1.202367358e-05
1.503989252e-05
1.592858853e-05
7.60868807e-06
7.829318648e-06
8.026898892e-06
8.30856582e-06
8.051912134e-06
8.828558896e-06
9.515200886e-06
1.013291564e-05
9.439630465e-06
5.794219878e-06
5.716479666e-06
5.945286593e-06
6.192576431e-06
6.368088829e-06
4.509352107e-06
4.537548126e-06
4.618144345e-06
4.635667798e-06
2.627190717e-06
2.627371376e-06
2.640581504e-06
2.630026355e-06
2.645226627e-06
3.428802315e-06
3.552622719e-06
2.649063777e-06
3.687417974e-06
3.746573787e-06
3.728605969e-06
0.0009943483885
0.0003666360986
0.0003688093872
0.000351082867
2.179453541e-06
2.171448003e-06
0.0003180160366
0.0003318263038
0.0001077352469
3.20989109e-05
2.912497409e-05
3.125639508e-05
3.017579434e-05
9.656386983e-05
3.32707335e-05
2.612290835e-05
2.761485534e-05
2.243300114e-05
2.845680038e-05
9.573207569e-06
1.074813351e-05
1.202319532e-05
1.278424571e-05
1.156627591e-05
6.390288053e-06
6.519313547e-06
6.668613456e-06
6.8371509e-06
6.90025657e-06
7.431098835e-06
7.704096541e-06
8.320701324e-06
7.901339653e-06
4.750910962e-06
4.715852366e-06
5.049900102e-06
5.207298851e-06
5.173897558e-06
3.763229422e-06
3.774321183e-06
3.836031593e-06
3.836525189e-06
2.176351714e-06
2.179306293e-06
2.185934674e-06
2.173651796e-06
2.17805311e-06
2.808254835e-06
2.995169614e-06
2.187041852e-06
3.100053691e-06
3.144470689e-06
3.117511504e-06
0.001071410503
0.0003654241519
0.0003666500181
0.0003477691042
0.0003481672419
9.512260539e-05
0.0001040341295
0.0003191935279
0.0001021433365
0.0001082668287
2.679093196e-05
3.040575408e-05
2.975874391e-05
3.198438944e-05
9.250637226e-05
3.265951116e-05
2.848678887e-05
2.300571875e-05
1.350727969e-05
1.5663524e-05
8.214982582e-06
8.996372914e-06
9.665417718e-06
1.041336831e-05
9.620008771e-06
5.363859944e-06
5.431405519e-06
5.543452367e-06
5.63663905e-06
5.889404815e-06
6.249914912e-06
6.263501233e-06
6.848525024e-06
6.61202167e-06
3.902358978e-06
3.894026309e-06
4.278102347e-06
4.376072224e-06
4.217846509e-06
3.140306893e-06
3.140176865e-06
3.186947748e-06
3.17696972e-06
2.304203468e-06
2.520901166e-06
2.603843039e-06
2.637173189e-06
2.605968803e-06
0.0003278928112
0.0003385862292
0.0003421497996
0.000346469576
0.0001073974604
9.344919706e-05
0.0001060757586
0.0003349451539
0.00011460055
2.47856169e-05
2.466078942e-05
2.749926123e-05
2.87702358e-05
3.138340579e-05
2.785323725e-05
3.071648009e-05
1.422928412e-05
1.590688499e-05
1.21059731e-05
1.022387238e-05
1.245214957e-05
7.020220072e-06
7.5323161e-06
7.809045121e-06
8.512369045e-06
8.008962735e-06
4.500113416e-06
4.527082292e-06
4.610422919e-06
4.654160694e-06
5.010231044e-06
5.253047666e-06
5.110707018e-06
5.648067669e-06
5.531899692e-06
3.210158803e-06
3.217945522e-06
3.616502304e-06
3.675637045e-06
3.448481548e-06
2.620319914e-06
2.613071548e-06
2.648090259e-06
2.632064866e-06
2.118776252e-06
2.1853864e-06
2.210358215e-06
2.177945077e-06
0.0003362039569
0.0003383738605
0.0003237293911
9.885064394e-05
3.178158626e-05
3.322793031e-05
2.725625899e-05
2.90958622e-05
2.902690597e-05
0.000105620279
0.0001151114866
1.928512506e-05
1.834500681e-05
2.706243119e-05
2.572792841e-05
2.777958179e-05
2.384349431e-05
2.718216875e-05
1.086759952e-05
1.306172717e-05
1.269730243e-05
9.955397442e-06
8.66704687e-06
9.960011101e-06
5.979143934e-06
6.308071882e-06
6.337368828e-06
6.979959384e-06
6.673155688e-06
3.773929987e-06
3.774760463e-06
3.836029959e-06
3.848000098e-06
4.251000828e-06
4.412786167e-06
4.18319311e-06
4.665957475e-06
4.627392572e-06
2.644066496e-06
2.660993401e-06
3.051857317e-06
3.085990079e-06
2.826509358e-06
2.186312488e-06
2.17478989e-06
2.200619048e-06
2.181496024e-06
0.000343692118
0.0003213453554
0.0001147608269
9.71489702e-05
3.330267346e-05
3.362404208e-05
2.912889381e-05
2.815309436e-05
2.478842457e-05
2.612860524e-05
0.0001048203619
1.356387175e-05
1.525102036e-05
1.440373709e-05
2.423443023e-05
2.231082752e-05
1.964492553e-05
2.597867742e-05
9.234387752e-06
1.068906023e-05
1.019247157e-05
8.206681085e-06
7.332411479e-06
8.011062833e-06
5.07861468e-06
5.283906172e-06
5.163247052e-06
5.738752547e-06
5.563975497e-06
3.163864701e-06
3.148467284e-06
3.192821354e-06
3.18502167e-06
3.599013695e-06
3.705259096e-06
3.433303361e-06
3.860190616e-06
3.870199453e-06
2.180104834e-06
2.201644972e-06
2.571660657e-06
2.590009416e-06
2.321668742e-06
0.0001017536866
0.0001050875964
0.0001137289183
0.0001134142844
9.586187834e-05
3.289402167e-05
3.271663143e-05
2.879380669e-05
2.888956496e-05
2.553835032e-05
2.311955696e-05
2.13629492e-05
2.504924545e-05
0.0001038147605
1.056940094e-05
1.282618589e-05
1.236315724e-05
1.138727789e-05
1.855717497e-05
1.73068226e-05
1.68643507e-05
1.282500856e-05
7.8197192e-06
8.768937398e-06
8.223042813e-06
6.779214481e-06
6.192983216e-06
6.475719334e-06
4.304141829e-06
4.426800604e-06
4.221091024e-06
4.729141047e-06
4.641850848e-06
2.651672943e-06
2.626792704e-06
2.658238813e-06
2.638744726e-06
3.041615011e-06
3.110007874e-06
2.824411412e-06
3.197481999e-06
3.236503512e-06
2.164449108e-06
2.173096323e-06
0.00010074782
0.0001011281611
0.0001018934944
9.455250808e-05
3.215128784e-05
3.242835898e-05
2.872865838e-05
2.864702296e-05
2.438710995e-05
2.471257951e-05
2.197834644e-05
1.992846759e-05
1.902999997e-05
1.947754694e-05
9.122095158e-06
1.061940016e-05
1.005833635e-05
9.058894272e-06
1.464312936e-05
1.449020747e-05
1.353434849e-05
1.030155733e-05
1.268406181e-05
6.603428694e-06
7.20888416e-06
6.663789514e-06
5.610020736e-06
5.223453061e-06
5.257898972e-06
3.641134036e-06
3.709278309e-06
3.461129007e-06
3.904846258e-06
3.874443725e-06
2.221878588e-06
2.192051852e-06
2.213703167e-06
2.187889852e-06
2.566789658e-06
2.609570565e-06
2.328138565e-06
2.65128707e-06
2.706284974e-06
9.922315366e-05
9.297279475e-05
9.339180662e-05
3.186572829e-05
3.155194105e-05
2.818877376e-05
2.847917928e-05
2.501977767e-05
2.543641755e-05
2.013833136e-05
2.082642219e-05
1.884247968e-05
1.841074842e-05
1.521095177e-05
1.538048345e-05
7.822985938e-06
8.800889459e-06
8.208769528e-06
7.24701736e-06
1.1630335e-05
1.192890582e-05
1.091410466e-05
9.003518894e-06
1.05706233e-05
5.563770794e-06
5.937002746e-06
5.421376436e-06
4.649536969e-06
4.400720306e-06
4.285814207e-06
3.075641306e-06
3.108447595e-06
2.845279324e-06
3.229661347e-06
3.235236369e-06
2.163478961e-06
2.189092377e-06
2.200313478e-06
2.262732342e-06
2.826921213e-05
2.906991562e-05
3.104564153e-05
3.10817781e-05
3.11824377e-05
3.13273527e-05
2.779056052e-05
2.741333766e-05
2.487801041e-05
2.545123651e-05
1.990157722e-05
2.424708473e-05
1.687453982e-05
1.78741999e-05
1.765533973e-05
1.488109955e-05
1.22114805e-05
1.221921225e-05
6.67521488e-06
7.299804349e-06
6.717309342e-06
5.826337429e-06
9.292159202e-06
9.836936562e-06
8.838298317e-06
7.797214669e-06
8.804957742e-06
4.679187671e-06
4.896965028e-06
4.425664084e-06
3.858486622e-06
3.704100528e-06
3.505400521e-06
2.594761321e-06
2.605217735e-06
2.344165739e-06
2.675052023e-06
2.702419078e-06
2.687043955e-05
2.660952109e-05
2.700890565e-05
2.673671179e-05
2.70761164e-05
2.719107157e-05
2.397576152e-05
2.359623014e-05
2.171027003e-05
2.452158134e-05
1.567997686e-05
1.206263442e-05
1.572025045e-05
1.679360765e-05
1.438906183e-05
1.206507978e-05
9.840392493e-06
9.760129736e-06
5.673015156e-06
6.058955857e-06
5.509466776e-06
4.704572986e-06
7.463378694e-06
8.123451976e-06
7.183616354e-06
6.70474933e-06
7.331248954e-06
3.929322759e-06
4.044324359e-06
3.623500942e-06
3.205544384e-06
3.115330952e-06
2.875607061e-06
2.186828455e-06
2.183654054e-06
2.218377291e-06
2.25800753e-06
2.422777397e-05
2.382763669e-05
2.347296862e-05
2.356486175e-05
2.343822647e-05
2.345174563e-05
2.108045763e-05
2.086233468e-05
2.022832861e-05
1.985323456e-05
1.373914365e-05
1.23451079e-05
9.914494974e-06
1.294222661e-05
1.373998513e-05
1.175567971e-05
9.807498686e-06
7.955224081e-06
7.832860592e-06
4.805731237e-06
5.031978216e-06
4.527649345e-06
3.813177826e-06
6.022602959e-06
6.716555608e-06
5.857277739e-06
5.73326358e-06
6.102180533e-06
3.295548793e-06
3.343777762e-06
2.974268308e-06
2.665579109e-06
2.618455645e-06
2.365008452e-06
2.093895995e-05
2.147031218e-05
2.105528637e-05
2.12545693e-05
2.091752011e-05
2.083988432e-05
2.024285197e-05
2.027650127e-05
1.601626258e-05
1.562653857e-05
1.149584412e-05
1.029930777e-05
8.747786603e-06
1.067530085e-05
1.126886362e-05
9.624152084e-06
7.989968904e-06
6.448789468e-06
6.312031787e-06
4.060398932e-06
4.181133638e-06
3.726974054e-06
3.100783678e-06
4.879913867e-06
5.558983571e-06
4.788865748e-06
4.880844138e-06
5.077798725e-06
2.761184312e-06
2.767115496e-06
2.446666614e-06
2.218320967e-06
2.199647598e-06
2.082332008e-05
2.042020712e-05
2.039476151e-05
2.04181086e-05
2.036932669e-05
2.033932939e-05
1.615879509e-05
1.62866521e-05
1.27472331e-05
1.237904191e-05
9.617746735e-06
8.591494855e-06
7.640315479e-06
8.819623829e-06
9.261278342e-06
7.892925679e-06
6.521383842e-06
5.239695533e-06
5.104531302e-06
3.423362366e-06
3.475600383e-06
3.072198125e-06
2.528549633e-06
3.968137505e-06
4.604864801e-06
3.924473356e-06
4.140408482e-06
4.224460616e-06
2.311522248e-06
2.291674065e-06
1.674792831e-05
1.656465457e-05
1.653559137e-05
1.657609335e-05
1.648014016e-05
1.64072434e-05
1.294766728e-05
1.311638541e-05
1.019114666e-05
9.862930682e-06
8.045729667e-06
7.166193678e-06
6.620910229e-06
7.296463937e-06
7.624715384e-06
6.482688655e-06
5.331047997e-06
4.265567199e-06
4.140562394e-06
2.881248933e-06
2.890132791e-06
2.535456198e-06
3.236653323e-06
3.817257991e-06
3.222483447e-06
3.502221232e-06
3.513911447e-06
1.348388028e-05
1.343747611e-05
1.341390537e-05
1.345879699e-05
1.334762254e-05
1.325813554e-05
1.04080748e-05
1.058652157e-05
8.179113085e-06
7.898201631e-06
6.73014011e-06
5.976914343e-06
5.702332989e-06
6.043322248e-06
6.286680453e-06
5.331035814e-06
4.363682153e-06
3.478192504e-06
3.36731083e-06
2.421521112e-06
2.403997564e-06
2.646980704e-06
3.166277343e-06
2.650507711e-06
2.955494394e-06
2.922464543e-06
1.086501218e-05
1.090093223e-05
1.088634888e-05
1.092891354e-05
1.081991625e-05
1.072873154e-05
8.389314908e-06
8.56030366e-06
6.58593483e-06
6.352975134e-06
5.629307476e-06
4.984736579e-06
4.887266794e-06
5.010277603e-06
5.189953606e-06
4.388544583e-06
3.575752595e-06
2.840011454e-06
2.744452943e-06
2.62764532e-06
2.489368043e-06
2.430295842e-06
8.760735319e-06
8.843378592e-06
8.838237202e-06
8.875354296e-06
8.77714073e-06
8.69210759e-06
6.777502512e-06
6.932440358e-06
5.317862831e-06
5.129750423e-06
4.708290716e-06
4.15710491e-06
4.172328718e-06
4.157226458e-06
4.289078227e-06
3.615832892e-06
2.93276e-06
7.067914915e-06
7.174306232e-06
7.177556288e-06
7.208175809e-06
7.12419045e-06
7.048919246e-06
5.48576239e-06
5.621215409e-06
4.30401897e-06
4.155778375e-06
3.937790643e-06
3.466798807e-06
3.550713599e-06
3.451793723e-06
3.547722153e-06
2.981348955e-06
5.704767388e-06
5.820328009e-06
5.830309821e-06
5.854504727e-06
5.785290249e-06
5.720916828e-06
4.44722899e-06
4.562737287e-06
3.490303004e-06
3.37626698e-06
3.29326556e-06
2.891078244e-06
3.013936272e-06
2.86772322e-06
2.936690908e-06
4.60621325e-06
4.721931899e-06
4.736868302e-06
4.755272269e-06
4.699850693e-06
4.646139737e-06
3.610022681e-06
3.706744089e-06
2.835067623e-06
2.749577694e-06
2.75415448e-06
2.410953138e-06
2.552922586e-06
3.720317704e-06
3.830856869e-06
3.849108336e-06
3.862578403e-06
3.819278301e-06
3.775299871e-06
2.933594577e-06
3.013458267e-06
3.005535885e-06
3.10796047e-06
3.128133337e-06
3.137565567e-06
3.104498631e-06
3.06902766e-06
2.32856875e-06
2.176530527e-06
2.816798609e-06
2.207426612e-06
2.617672642e-06
3.413460264e-06
2.178627188e-06
2.64077197e-06
3.150249244e-06
4.145125914e-06
2.597245832e-06
2.235382885e-06
3.159306624e-06
3.794074984e-06
5.045847785e-06
3.095738213e-06
2.650290466e-06
2.193329574e-06
3.779828419e-06
4.573617363e-06
6.159596822e-06
3.689100838e-06
3.139704177e-06
2.592523554e-06
2.156733555e-06
4.52246953e-06
5.519233577e-06
7.543622982e-06
4.395036602e-06
3.715932552e-06
3.061445683e-06
2.540197959e-06
2.333795137e-06
5.411366442e-06
6.668794416e-06
9.273059731e-06
5.234400845e-06
4.392839334e-06
3.611028188e-06
2.986734221e-06
2.808367164e-06
2.189008878e-06
6.475472461e-06
8.069815386e-06
1.144732588e-05
6.231695047e-06
5.185819679e-06
4.253367426e-06
3.504490031e-06
3.384341209e-06
2.614688238e-06
2.246463203e-06
7.749532705e-06
9.782305709e-06
1.419902237e-05
7.415603462e-06
6.111622356e-06
5.00157266e-06
4.101619398e-06
4.085368017e-06
3.124022415e-06
2.663371484e-06
2.178996562e-06
9.275277669e-06
1.188257784e-05
1.991908793e-05
8.819571874e-06
7.187949253e-06
5.869440797e-06
4.785653796e-06
4.941377122e-06
3.733811788e-06
3.155876788e-06
2.574188164e-06
2.198774319e-06
1.110285889e-05
1.494073674e-05
2.155181107e-05
2.491682606e-05
1.048239084e-05
8.432707394e-06
6.870852646e-06
5.562501051e-06
5.990520981e-06
4.464374763e-06
3.73693946e-06
3.038665951e-06
2.58393426e-06
2.374056533e-06
2.322147842e-05
2.386837361e-05
2.495489866e-05
2.268340433e-05
1.3359486e-05
9.862727183e-06
8.018762256e-06
6.434885919e-06
7.281790666e-06
5.340351892e-06
4.421416607e-06
3.58357642e-06
3.030971211e-06
2.847832313e-06
2.217389253e-06
2.303093699e-05
2.423528917e-05
2.585126742e-05
2.430225637e-05
2.339765012e-05
2.14339909e-05
9.32356141e-06
7.399986649e-06
8.878584663e-06
6.391699584e-06
5.226197776e-06
4.221421432e-06
3.547402607e-06
3.419885822e-06
2.640855298e-06
2.215960181e-06
2.295737779e-05
7.899594357e-05
2.528134359e-05
7.67565851e-05
2.344887221e-05
7.416852428e-05
2.078316913e-05
1.054672389e-05
8.445899216e-06
1.086359071e-05
7.654962525e-06
6.170260809e-06
4.966023853e-06
4.140515726e-06
4.112113584e-06
3.144107762e-06
2.62323784e-06
2.362269165e-06
2.441072882e-05
7.916304669e-05
7.313117496e-05
7.989013479e-05
1.873373356e-05
2.260568132e-05
1.33455002e-05
9.174881475e-06
7.274617752e-06
5.832358121e-06
4.816661366e-06
4.951887513e-06
3.741709447e-06
3.10052443e-06
2.853380803e-06
2.208647659e-06
2.557900081e-05
7.714464498e-05
7.532756884e-05
7.301486484e-05
2.487647237e-05
2.343513894e-05
2.385701183e-05
1.100645583e-05
8.56204685e-06
6.836186114e-06
5.580144296e-06
5.973627446e-06
4.45067874e-06
3.657695878e-06
3.451876378e-06
2.645603421e-06
2.249614211e-06
7.447547414e-05
0.0002356508773
7.731177672e-05
7.887055816e-05
2.391480546e-05
1.371747589e-05
2.16342123e-05
1.005651995e-05
7.9933883e-06
6.431528054e-06
7.220920683e-06
5.29080661e-06
4.304998698e-06
4.183420609e-06
3.169803267e-06
2.674486491e-06
2.200324161e-06
0.000236741509
7.242247724e-05
2.281674103e-05
2.28010199e-05
8.158851518e-05
2.410725495e-05
2.121662838e-05
9.318839184e-06
7.365091653e-06
8.749352046e-06
6.284982639e-06
5.05246536e-06
5.080680488e-06
3.798998192e-06
3.177814856e-06
2.604213173e-06
2.229850331e-06
0.0002304195494
7.813198012e-05
7.652252425e-05
7.278052652e-05
2.190543085e-05
2.276849003e-05
2.020502417e-05
1.034782619e-05
8.365054985e-06
1.063033656e-05
7.459478091e-06
5.908951491e-06
6.185536642e-06
4.554692509e-06
3.773322092e-06
3.079604434e-06
2.621698867e-06
2.400169434e-06
0.0002352984911
0.0002401158155
7.667028759e-05
7.479872689e-05
2.448902931e-05
2.289835506e-05
2.259343938e-05
2.267613633e-05
1.79919002e-05
1.295632726e-05
8.844159736e-06
6.880585225e-06
7.552109644e-06
5.462990728e-06
4.476791953e-06
3.638031435e-06
3.076354659e-06
2.873841448e-06
2.229740092e-06
0.000234928608
7.85899777e-05
7.594288324e-05
0.0002423405068
7.718680756e-05
2.508220845e-05
2.438027744e-05
2.187334099e-05
2.418129325e-05
1.173467177e-05
1.979343403e-05
1.047256348e-05
7.968367403e-06
9.250893814e-06
6.555664272e-06
5.306226503e-06
4.292387997e-06
3.601239474e-06
3.444236721e-06
2.645031954e-06
2.244316924e-06
8.106498846e-05
0.0002268153361
7.734003062e-05
7.245146374e-05
7.465340715e-05
0.0002445140915
7.356088445e-05
2.293211051e-05
2.303143312e-05
2.134771963e-05
1.409394671e-05
9.164511838e-06
1.404542165e-05
1.137447329e-05
7.871498853e-06
6.281927568e-06
5.056853335e-06
4.203383449e-06
4.132422352e-06
3.13623314e-06
2.641470108e-06
2.415578177e-06
7.578128331e-05
0.0002310546619
0.0002371807036
7.546410548e-05
7.284384483e-05
2.491712882e-05
2.409587856e-05
0.0002478143613
2.382672812e-05
2.286650548e-05
2.03173669e-05
2.333271508e-05
1.047889943e-05
1.032149958e-05
1.137359286e-05
9.458002568e-06
7.426448698e-06
5.946652036e-06
4.888624731e-06
4.964569464e-06
3.716606731e-06
3.10349588e-06
2.895652823e-06
2.242551764e-06
7.363084854e-05
7.701726332e-05
7.43875388e-05
0.0002247203158
0.0002383389703
7.533685154e-05
2.36214569e-05
2.284952569e-05
2.296560865e-05
2.302272025e-05
0.0002496336363
2.200151574e-05
2.06782645e-05
1.821285395e-05
2.227243973e-05
9.523243412e-06
8.44447697e-06
8.764331186e-06
6.977579846e-06
5.660351553e-06
5.973381364e-06
4.401467649e-06
3.638643364e-06
3.475075292e-06
2.662388447e-06
2.26406843e-06
2.475411976e-05
2.392863308e-05
7.424985903e-05
8.04406359e-05
7.021787542e-05
0.0002333654792
8.069981085e-05
0.0002395602843
7.11612264e-05
2.181657771e-05
2.341676506e-05
2.06825402e-05
2.06918673e-05
0.0002513439052
2.222426172e-05
1.834444043e-05
1.278326283e-05
1.117407097e-05
8.165160932e-06
7.452187445e-06
6.517600142e-06
7.199979617e-06
5.208381704e-06
4.255106926e-06
4.175993926e-06
3.159752436e-06
2.666727467e-06
2.430056559e-06
2.265280874e-05
2.248238337e-05
7.203549909e-05
2.38616399e-05
2.481193539e-05
2.398686969e-05
2.466041103e-05
0.0002232755057
7.7108809e-05
8.124141152e-05
7.555646645e-05
0.000240504582
2.265703002e-05
2.172928156e-05
2.193727536e-05
2.250511928e-05
1.84505049e-05
1.872815179e-05
0.0002530827079
1.127926704e-05
1.312950497e-05
1.009277027e-05
1.052910137e-05
8.715753224e-06
8.696427285e-06
6.157326075e-06
4.960359183e-06
5.026109845e-06
3.748503837e-06
3.135677366e-06
2.914769865e-06
2.247524401e-06
2.008136343e-05
2.248210661e-05
7.154461425e-05
2.268877489e-05
2.257595659e-05
2.186362561e-05
2.261057759e-05
0.0002263011805
0.0002309588902
7.487314103e-05
7.620863906e-05
6.990303825e-05
0.0002431225414
2.050871306e-05
1.904346873e-05
1.10636608e-05
1.137303707e-05
1.32894194e-05
1.325542948e-05
0.0002547960416
8.87869708e-06
1.029888898e-05
1.077407454e-05
8.573577999e-06
7.646206612e-06
7.270764238e-06
5.760092926e-06
6.060289882e-06
4.444785039e-06
3.679519463e-06
3.499994429e-06
2.670005461e-06
2.263405342e-06
1.799472411e-05
2.080674455e-05
2.218937117e-05
2.27699067e-05
2.319519544e-05
2.095874655e-05
2.162464921e-05
1.945826577e-05
6.991562169e-05
0.0002176856749
7.432412544e-05
0.0002320799672
7.859031773e-05
7.196101986e-05
2.446717587e-05
2.397172245e-05
0.0002447804238
1.938805798e-05
1.509982579e-05
1.01779063e-05
8.67340135e-06
8.893453513e-06
1.032277226e-05
1.090109718e-05
1.087587995e-05
0.0002561527591
7.776334127e-06
8.723782642e-06
8.86980623e-06
6.656582433e-06
7.322721194e-06
5.267308728e-06
4.306880881e-06
4.208128205e-06
3.170531465e-06