/*--------------------------------*- C++ -*----------------------------------*\
  =========                 |
  \\      /  F ield         | OpenFOAM: The Open Source CFD Toolbox
   \\    /   O peration     | Website:  https://openfoam.org
    \\  /    A nd           | Version:  8
     \\/     M anipulation  |
\*---------------------------------------------------------------------------*/






FoamFile
{
    version     2.0;
    format      ascii;
    class       volVectorField;
    location    "0";
    object      UDDES;
}
// * * * * * * * * * * * * * * * * * * * * * * * * * * * * * * * * * * * * * //

dimensions      [0 1 -1 0 0 0 0];


internalField   nonuniform List<vector> 
26895
(
( 0.0284450613 -0.0004114636686 -0.0001703016896 )
( 0.02846852317 -0.0003760127584 -0.0001725637412 )
( 0.02825102583 -0.0004417502787 -0.0001517620403 )
( 0.02860730141 -0.0003532682313 -0.000186598365 )
( 0.02848787792 -0.0003489871451 -0.0001744493493 )
( 0.02828802727 -0.0004086803237 -0.0001543619583 )
( 0.02736485749 -0.0005404676776 -0.0001164586938 )
( 0.02863179147 -0.0002902940032 -0.0001891926804 )
( 0.02850957215 -0.0003133155697 -0.0001763690816 )
( 0.02832230926 -0.0003773372737 -0.0001573964837 )
( 0.02746607736 -0.0005020195385 -0.0001161479086 )
( 0.02620122768 -0.0006450381479 -0.0001072874147 )
( 0.02865948901 -0.00022429807 -0.0001899467461 )
( 0.02852904052 -0.0002856446663 -0.0001776266145 )
( 0.02835447714 -0.0003446258488 -0.0001601338299 )
( 0.02756292373 -0.0004634117358 -0.000117128322 )
( 0.02635289356 -0.0006027293275 -0.0001051061481 )
( 0.02262750641 -0.0008265899378 -0.0001132984398 )
( 0.02869066596 -0.0001535430347 -0.0001898687478 )
( 0.02857098356 -0.0002196905552 -0.00018044647 )
( 0.02855120413 -0.0002483486314 -0.0001792909316 )
( 0.02838547155 -0.000313393859 -0.0001628017199 )
( 0.02765372582 -0.0004252103099 -0.0001196898083 )
( 0.02650409564 -0.0005591955851 -0.0001027547405 )
( 0.02276106179 -0.0007905198727 -0.0001134975828 )
( 0.01958081871 -0.0008658165461 -0.0001169533061 )
( 0.02872633189 -7.801265747e-05 -0.0001925083052 )
( 0.02861520648 -0.0001492910378 -0.0001827333763 )
( 0.02859472856 -0.0001798324811 -0.0001812925329 )
( 0.02844509296 -0.0002478015376 -0.000168120343 )
( 0.02841559798 -0.0002799078065 -0.0001654608204 )
( 0.02773828246 -0.0003877358686 -0.0001231156202 )
( 0.02665228397 -0.0005150001962 -0.000101746482 )
( 0.02501300536 -0.0006572603015 -0.0001049725324 )
( 0.01959439553 -0.0008358237101 -0.0001184210269 )
( 0.0129979318 -0.0006356050144 -0.0001244515006 )
( 0.02876896225 9.421910363e-06 -0.0001880272321 )
( 0.02866532095 -7.425598596e-05 -0.0001834434515 )
( 0.02864115871 -0.000108254535 -0.000185253477 )
( 0.02850409783 -0.0001789266098 -0.0001718402782 )
( 0.02847447246 -0.0002125503088 -0.0001700938446 )
( 0.02789079398 -0.0003133520659 -0.0001311549131 )
( 0.02781704813 -0.0003503399494 -0.0001270986686 )
( 0.02679659612 -0.0004707724438 -0.0001026829268 )
( 0.02519474924 -0.0006118433666 -0.0001016782189 )
( 0.0196252279 -0.0008030854515 -0.0001175328871 )
( 0.01264008507 -0.0005967298057 -0.0001142959663 )
( 0.006908237934 -3.810208727e-05 -0.0001377572189 )
( 0.02881755307 0.0001009859479 -0.0001878139155 )
( 0.02872355841 7.75081935e-06 -0.0001836651791 )
( 0.02869426832 -3.113880302e-05 -0.0001835181611 )
( 0.02856828645 -0.0001070123035 -0.0001758313156 )
( 0.02853605151 -0.0001421037159 -0.0001744048932 )
( 0.02802486345 -0.0002411259484 -0.0001385053183 )
( 0.02795963176 -0.0002769672137 -0.0001349140221 )
( 0.02740088291 -0.0003585186787 -0.0001135010098 )
( 0.02693545818 -0.0004267070326 -0.000105089719 )
( 0.0253810063 -0.0005642951583 -9.936948481e-05 )
( 0.01967671141 -0.0007667735335 -0.0001147918374 )
( 0.01228051633 -0.0005604469916 -0.0001016817914 )
( 0.006279360037 3.255474076e-05 -0.0001204233486 )
( 0.002443966456 0.0006877598935 -0.0001451240823 )
( 0.02887905948 0.0002101146674 -0.000185198267 )
( 0.02879028767 9.570836846e-05 -0.0001836529846 )
( 0.02875830419 5.534364391e-05 -0.0001840089244 )
( 0.02863869257 -3.414038656e-05 -0.0001779436134 )
( 0.02860146388 -7.083174569e-05 -0.0001767690846 )
( 0.02815039828 -0.0001715489198 -0.0001469686977 )
( 0.02808795869 -0.0002061271225 -0.0001431656128 )
( 0.0276030153 -0.0002799615031 -0.0001216507371 )
( 0.02750507742 -0.000318509381 -0.0001178133607 )
( 0.02576264553 -0.0004662224674 -0.0001002917707 )
( 0.0255714301 -0.000515629421 -9.91136767e-05 )
( 0.01975441352 -0.0007275742246 -0.0001098098146 )
( 0.01193151157 -0.0005237850128 -8.832286403e-05 )
( 0.005645952187 9.110450628e-05 -0.0001000743869 )
( 0.001813107054 0.0007703049341 -0.0001328674552 )
( -0.000346444227 0.001300025033 -0.0001725411421 )
( 0.02895881608 0.0003653641033 -0.0001835903677 )
( 0.02887466922 0.0002074486256 -0.0001827996166 )
( 0.02883546054 0.0001573869085 -0.0001831370319 )
( 0.02872179449 4.946414992e-05 -0.000179518509 )
( 0.02867906913 7.897646356e-06 -0.0001786801586 )
( 0.02827325836 -0.0001051772997 -0.0001536423515 )
( 0.02821014635 -0.000137975745 -0.0001503906096 )
( 0.02779107355 -0.0002069665061 -0.000129928565 )
( 0.02769915946 -0.0002426633728 -0.0001259832788 )
( 0.0261483863 -0.0003706478165 -0.0001045235113 )
( 0.02595511079 -0.0004177337105 -0.0001027406252 )
( 0.02000659704 -0.0006378769176 -9.792941273e-05 )
( 0.01986304671 -0.0006844794843 -0.0001035727691 )
( 0.01160108112 -0.0004860427871 -7.601853576e-05 )
( 0.005025888793 0.0001399391185 -7.818917948e-05 )
( 0.001209475216 0.000826736039 -0.0001226434542 )
( -0.0007880257908 0.001351565588 -0.0001639059919 )
( -0.001842915546 0.001687907497 -0.0001799901511 )
( 0.02903237939 0.0005387474084 -0.0001812929695 )
( 0.02897500992 0.0003483058535 -0.0001823948551 )
( 0.02892893925 0.0002852305479 -0.0001827360247 )
( 0.02882338315 0.0001494364406 -0.00018036642 )
( 0.02877003886 9.735054482e-05 -0.0001801902108 )
( 0.0285889376 3.866488896e-06 -0.0001711604709 )
( 0.02853302471 -3.425691466e-05 -0.000169262159 )
( 0.02796321549 -0.0001417968597 -0.0001381828042 )
( 0.02787451819 -0.0001736656122 -0.0001341809984 )
( 0.02651261352 -0.0002834236948 -0.0001089755242 )
( 0.02634207159 -0.000325585017 -0.0001069368518 )
( 0.02042827755 -0.0005423930706 -8.956401143e-05 )
( 0.02019157447 -0.0005899422104 -9.334142669e-05 )
( 0.01104944758 -0.0004127144348 -5.59198852e-05 )
( 0.01130177081 -0.0004485220416 -6.46622284e-05 )
( 0.004434701521 0.0001815886499 -5.996535765e-05 )
( 0.0006532177795 0.0008554876549 -0.0001104572366 )
( -0.001159500447 0.001359563204 -0.0001565627172 )
( -0.002037343569 0.001662512892 -0.0001699709974 )
( -0.002482379321 0.001836204319 -0.0001563268161 )
( 0.02910127118 0.0007499568164 -0.0001789028174 )
( 0.02908404171 0.0005311386776 -0.0001809819078 )
( 0.0290350914 0.0004485957616 -0.0001816144504 )
( 0.02894644625 0.000280052569 -0.0001811800903 )
( 0.02888303623 0.0002120615391 -0.0001805467473 )
( 0.02871790156 9.390043124e-05 -0.0001744558249 )
( 0.02865023166 4.616359365e-05 -0.0001728601201 )
( 0.02805691026 -8.793565212e-05 -0.0001402996568 )
( 0.02800149098 -0.0001156467843 -0.0001404755603 )
( 0.02691885456 -0.0002087697067 -0.000116007599 )
( 0.02671480924 -0.0002439491655 -0.0001118773798 )
( 0.0210946314 -0.0004486709659 -8.562250878e-05 )
( 0.02073333785 -0.0004953080206 -8.723969222e-05 )
( 0.0107820807 -0.0003635864123 -4.992396498e-05 )
( 0.01087319851 -0.000383588369 -5.186116687e-05 )
( 0.003419224638 0.0002325600944 -2.651916475e-05 )
( 0.00389833888 0.0002126845502 -4.368865848e-05 )
( 0.0001679125999 0.0008573448285 -9.873708041e-05 )
( -0.00145118963 0.001319807023 -0.0001487708068 )
( -0.002135098446 0.00158727169 -0.0001601658296 )
( -0.002323106863 0.001716685714 -0.0001599928364 )
( -0.002302231267 0.001760631101 -0.0001647487516 )
( -0.002582788933 0.001757661579 -0.0001269301865 )
( -0.002678227145 0.001849302091 -0.0001299716532 )
( -0.002518820344 0.001742109773 -0.0001377717126 )
( 0.02915771678 0.001004689839 -0.0001764767367 )
( 0.02919363976 0.0007572990726 -0.0001787084911 )
( 0.02914394066 0.000657116354 -0.0001798388112 )
( 0.02908295579 0.0004551862949 -0.0001808249799 )
( 0.02901422232 0.0003637642076 -0.0001804801141 )
( 0.02887172066 0.0002155807015 -0.0001761717431 )
( 0.02879191563 0.0001501703809 -0.0001753881515 )
( 0.02827707306 -1.807196168e-05 -0.0001467382972 )
( 0.02816041745 -5.552324001e-05 -0.0001435045851 )
( 0.02719769999 -0.0001564815902 -0.0001189245304 )
( 0.02705480345 -0.0001816085423 -0.0001187518938 )
( 0.02509330958 -0.0002864098933 -9.549099195e-05 )
( 0.02491994761 -0.0003057000868 -9.473499085e-05 )
( 0.02151981927 -0.000404881459 -8.414302283e-05 )
( 0.01615340635 -0.0004557861248 -7.055656897e-05 )
( 0.01598478295 -0.0004712587106 -7.144361734e-05 )
( 0.0108039137 -0.0003506422217 -4.81212046e-05 )
( 0.006097556092 -8.248763334e-05 -1.738362153e-05 )
( 0.006211798172 -8.155909018e-05 -1.954848995e-05 )
( 0.003021939425 0.0002341042564 -1.0310172e-05 )
( 0.0009322165279 0.0005605709739 -4.126012936e-05 )
( 0.00113611063 0.0005660253228 -5.135544416e-05 )
( -0.0002359300706 0.0008372177253 -8.614081889e-05 )
( -0.001650871709 0.001237187185 -0.0001409116085 )
( -0.001876075054 0.001477419748 -0.0001580230892 )
( -0.001933928928 0.001427888172 -0.000154017529 )
( -0.002318816725 0.001660428941 -0.0001549974841 )
( -0.002237318549 0.001511540147 -0.0001446635142 )
( -0.002289761323 0.00154044386 -0.000135961629 )
( -0.002427343978 0.001650059246 -0.0001334165427 )
( -0.002462884411 0.001654310734 -0.0001236441021 )
( -0.002324122004 0.001526976703 -0.0001090914666 )
( 0.02919521555 0.001403519767 -0.0001709571516 )
( 0.0292986799 0.001031855471 -0.0001772339747 )
( 0.02925215662 0.0009113454726 -0.0001777560392 )
( 0.02922317758 0.000680518453 -0.0001794275595 )
( 0.02915265597 0.0005642739125 -0.0001799807796 )
( 0.02904159576 0.000385669875 -0.0001775415876 )
( 0.02895550616 0.0002937330864 -0.0001771180832 )
( 0.02852371894 8.451348549e-05 -0.00015151361 )
( 0.0283955317 2.711735215e-05 -0.0001495415054 )
( 0.02798020095 -5.184067413e-05 -0.0001318824216 )
( 0.02790377475 -6.996563025e-05 -0.0001298804273 )
( 0.02774555795 -0.0001026099635 -0.0001261287834 )
( 0.02782408334 -8.666449139e-05 -0.0001278479758 )
( 0.02591515332 -0.0002121011639 -0.0001021179778 )
( 0.02575305849 -0.0002243414783 -0.0001005106169 )
( 0.02735259756 -0.0001314919791 -0.0001220997365 )
( 0.02541328222 -0.0002530935162 -9.745056741e-05 )
( 0.02558601089 -0.0002378955105 -9.891785157e-05 )
( 0.02184089087 -0.0003684872936 -8.221044845e-05 )
( 0.02159969695 -0.000386870699 -8.29565688e-05 )
( 0.01633620635 -0.000441061653 -6.970980758e-05 )
( 0.01654158905 -0.0004276944965 -6.920537271e-05 )
( 0.01073526405 -0.0003347439633 -4.429386536e-05 )
( 0.01066572778 -0.0003382887226 -4.570856981e-05 )
( 0.00600337144 -8.604759205e-05 -1.588459054e-05 )
( 0.005932144821 -9.15435885e-05 -1.468225855e-05 )
( 0.0004449425032 0.0004666916502 2.662440238e-06 )
( 0.002749829087 0.0002371176961 -2.972184575e-06 )
( 0.0007472134894 0.0005503323046 -3.032040695e-05 )
( 0.0005837497301 0.0005342779914 -1.955206972e-05 )
( -0.001390081481 0.0009381366544 -8.941980195e-05 )
( -0.0004460356722 0.0008251398103 -7.847076631e-05 )
( -0.001148181735 0.001066462486 -0.0001189672184 )
( -0.001750161638 0.001122582005 -0.0001257181575 )
( -0.001966346754 0.001220502658 -0.0001388801611 )
( -0.002056238009 0.0012845085 -0.0001403674105 )
( -0.001969271107 0.001367236255 -0.000150192267 )
( -0.002166304039 0.001419001841 -0.0001395168365 )
( -0.00231081713 0.001547074062 -0.0001276799157 )
( -0.002183033619 0.001437508035 -0.0001298524294 )
( -0.002022662433 0.001317666029 -0.0001127663272 )
( -0.00215798174 0.001421231544 -0.0001130212186 )
( -0.002318350133 0.001523299376 -0.0001091595259 )
( -0.002065795008 0.001341867959 -0.000100865007 )
( -0.001971205464 0.001255796524 -8.760661149e-05 )
( -0.001973032486 0.001257616212 -8.792614972e-05 )
( -0.002263534814 0.001461560489 -9.490107186e-05 )
( 0.02939560264 0.001383509953 -0.0001760351151 )
( 0.02935956791 0.001234196126 -0.0001767615468 )
( 0.02936132066 0.0009574836586 -0.0001782036561 )
( 0.02929282747 0.0008148555644 -0.0001789078815 )
( 0.02921421453 0.0006131705013 -0.0001777453872 )
( 0.02912834845 0.0004929351271 -0.0001778544101 )
( 0.02885651216 0.000295120175 -0.0001578061347 )
( 0.02879077196 0.0002441940596 -0.0001567925938 )
( 0.02865438536 0.0001556116185 -0.0001544607512 )
( 0.02830249816 5.165903713e-05 -0.0001391783298 )
( 0.02821883373 1.962587521e-05 -0.0001373934356 )
( 0.02805592678 -3.169576303e-05 -0.0001339559531 )
( 0.02813531086 -8.166698535e-06 -0.0001354475389 )
( 0.02669830061 -0.0001500485378 -0.0001106122436 )
( 0.0265350081 -0.0001675771055 -0.0001088271238 )
( 0.02744917199 -0.0001176210935 -0.0001239221892 )
( 0.0192375239 -0.0003652884625 -6.835820386e-05 )
( 0.02608080767 -0.0002003145055 -0.0001038479822 )
( 0.01883168891 -0.0003724895068 -6.861935253e-05 )
( 0.02233979106 -0.0003370333288 -8.12523358e-05 )
( 0.01845105179 -0.0003792702628 -6.885947369e-05 )
( 0.01218270231 -0.0003509924281 -4.779360097e-05 )
( 0.01679527201 -0.0004157277581 -6.894209218e-05 )
( 0.006253085099 -0.0001387074444 -1.332054035e-05 )
( 0.006479596719 -0.000163655568 -1.315819463e-05 )
( 0.002525235293 0.0001274903334 1.375257762e-05 )
( 0.002558745909 0.0001479328785 1.225853885e-05 )
( 0.000360379956 0.0004338023718 1.229154259e-05 )
( 0.0002979177516 0.0003998867469 2.028347626e-05 )
( -0.0008834908949 0.0006409127964 -1.336331843e-05 )
( -0.0008221662138 0.0006864306051 -2.790783583e-05 )
( -0.001440994674 0.000889575691 -7.61947158e-05 )
( -0.001474050106 0.000837099331 -6.238939386e-05 )
( -0.001773802214 0.0009951024549 -0.0001009419502 )
( -0.001771830721 0.001060381765 -0.0001143614863 )
( -0.001939838869 0.001139768632 -0.0001292163652 )
( -0.00198605191 0.001187616144 -0.0001333531109 )
( -0.00196390599 0.001207453781 -0.0001281072909 )
( -0.002074407646 0.001316822832 -0.0001339814044 )
( -0.00205527572 0.001324657351 -0.0001241442224 )
( -0.002152426867 0.001417394262 -0.0001128943986 )
( -0.001909065759 0.00124117895 -0.0001001062046 )
( -0.002018308267 0.001314126421 -0.000112750502 )
( -0.001788704656 0.001144525479 -0.0001018179173 )
( -0.001679115347 0.001080677495 -8.75601545e-05 )
( -0.001679360867 0.001080668881 -8.775010792e-05 )
( -0.001903400174 0.001237167628 -9.980807226e-05 )
( -0.001826854306 0.001178293256 -9.182313806e-05 )
( -0.001827760367 0.001178649603 -9.169308032e-05 )
( -0.002059492515 0.001337537193 -0.0001006905659 )
( -0.001899590599 0.001211631461 -8.849009464e-05 )
( -0.001961970935 0.001249237568 -8.729914407e-05 )
( -0.001727309544 0.001076841378 -7.525106048e-05 )
( -0.002000648994 0.001267754822 -8.032475307e-05 )
( 0.02950774506 0.001402227208 -0.0001756513666 )
( 0.02944240905 0.001159235835 -0.00017746097 )
( 0.02938286215 0.0008985442691 -0.0001765135676 )
( 0.02929919586 0.0007490003482 -0.0001773263939 )
( 0.02913810313 0.0005506309099 -0.000163359 )
( 0.02907934412 0.0004845831718 -0.0001631294726 )
( 0.02892279252 0.000351007533 -0.0001585759164 )
( 0.02898484468 0.0004102871171 -0.000159365678 )
( 0.02864377573 0.0002283317735 -0.0001448081457 )
( 0.0285643544 0.0001773603144 -0.0001435553422 )
( 0.02838705108 8.786055696e-05 -0.0001404626964 )
( 0.02827571705 9.554521239e-05 -0.0001376522414 )
( 0.0273172874 -4.967830318e-05 -0.0001169646348 )
( 0.02717332542 -8.550298662e-05 -0.0001151729302 )
( 0.02685877122 -0.0001316010603 -0.0001120940724 )
( 0.02702033706 -0.0001123185575 -0.0001131357785 )
( 0.02456569672 -0.0002339406055 -8.796057955e-05 )
( 0.0242901314 -0.0002521076531 -8.643315232e-05 )
( 0.0239963457 -0.0002697010059 -8.503172285e-05 )
( 0.01312068477 -0.0003657970228 -5.117469118e-05 )
( 0.01961691119 -0.0003568493121 -6.815514644e-05 )
( 0.01260846946 -0.0003533078125 -4.904816888e-05 )
( 0.01306007616 -0.0003599043121 -5.152649464e-05 )
( 0.01257825643 -0.0003530055401 -4.895459278e-05 )
( 0.01255637594 -0.0003564412473 -4.967793575e-05 )
( 0.01292286161 -0.0003582964709 -5.098849579e-05 )
( 0.006339891348 -0.0001659949194 -1.344108205e-05 )
( 0.00678467378 -0.0001832820562 -1.557040014e-05 )
( 0.006676374935 -0.0001780823222 -1.47853525e-05 )
( 0.002555033658 9.071225213e-05 1.519308171e-05 )
( 0.002327312948 9.36936267e-05 1.779860941e-05 )
( 0.002619729377 8.50269862e-05 1.472834811e-05 )
( 6.775373186e-05 0.0003228773421 3.342871059e-05 )
( 0.0002656713477 0.0003343582503 2.974565723e-05 )
( 0.0002332571603 0.0003392262443 2.980651334e-05 )
( -0.0009415381937 0.000546037918 1.335953129e-05 )
( -0.001010548207 0.0004964908003 2.527616743e-05 )
( -0.0009254824254 0.000541535439 1.42416975e-05 )
( -0.001472040778 0.0006401938153 -1.13136557e-05 )
( -0.001476867823 0.0007167688455 -2.992714508e-05 )
( -0.001484325971 0.0007207824383 -3.113521234e-05 )
( -0.001722164219 0.0008606279735 -7.262765575e-05 )
( -0.001645773416 0.0007606405998 -5.368103302e-05 )
( -0.00171823916 0.0008571307408 -7.172777987e-05 )
( -0.001719725667 0.0008731072885 -8.687062655e-05 )
( -0.001830684487 0.0009737123037 -0.0001024570083 )
( -0.001893627108 0.001056591747 -0.0001167609153 )
( -0.001896132715 0.00108621351 -0.0001237756514 )
( -0.001637716778 0.0009365694132 -0.000109089342 )
( -0.001839551725 0.001093587722 -0.0001213759315 )
( -0.001482222229 0.0008849028964 -0.0001000605844 )
( -0.001687095966 0.00103384559 -0.0001089830766 )
( -0.001483832253 0.0008847708814 -0.000100289195 )
( -0.001692342339 0.001037957496 -0.0001091805461 )
( -0.001912666252 0.001206165995 -0.0001185585352 )
( -0.001567561179 0.0009852342773 -9.425777534e-05 )
( -0.001567337546 0.0009857276455 -9.393979417e-05 )
( -0.001783372951 0.001140584354 -0.0001016427996 )
( -0.001728926203 0.001110320678 -8.805769176e-05 )
( -0.001596561633 0.001017433242 -8.595829422e-05 )
( -0.001670004451 0.001074337517 -8.707267261e-05 )
( -0.001477498095 0.0009457869455 -7.428260869e-05 )
( -0.001638693502 0.001049367827 -8.267282101e-05 )
( -0.001579969306 0.001006070408 -7.913415902e-05 )
( -0.00162954093 0.001039504888 -8.075400547e-05 )
( -0.001803965424 0.001149539137 -8.668300143e-05 )
( -0.001758412109 0.001106905285 -7.959242794e-05 )
( -0.00159604894 0.0009882788872 -7.10569293e-05 )
( -0.001507784938 0.000921793282 -6.400018901e-05 )
( -0.001633520005 0.00100471382 -6.550687249e-05 )
( 0.02956559509 0.001366496435 -0.0001735759288 )
( 0.02947416343 0.001104393974 -0.0001766032947 )
( 0.02940605022 0.0009068233194 -0.0001714574755 )
( 0.0293528419 0.000813015271 -0.0001706350449 )
( 0.02921004035 0.0006326739094 -0.0001655017841 )
( 0.02928637527 0.0007236329839 -0.0001686177857 )
( 0.02906878851 0.0005196073907 -0.000160525422 )
( 0.02896518633 0.0004408727109 -0.0001562278776 )
( 0.02872509509 0.0002851124154 -0.0001457134058 )
( 0.0288386438 0.0003585197846 -0.0001499617501 )
( 0.0284586288 0.0001918106718 -0.0001405935909 )
( 0.02836716175 0.0001405823568 -0.000139286436 )
( 0.02744795941 -1.547593638e-05 -0.0001184957 )
( 0.02759936266 2.04160915e-05 -0.0001200911502 )
( 0.02535629645 -0.0001720030414 -8.979137783e-05 )
( 0.02534662187 -0.0001732508244 -8.974083175e-05 )
( 0.02500451729 -0.0002092988871 -8.794198948e-05 )
( 0.02501587197 -0.000208033729 -8.804269601e-05 )
( 0.02440653555 -0.0002394365001 -8.627788338e-05 )
( 0.02442287654 -0.0002386478736 -8.637294377e-05 )
( 0.0247258544 -0.0002250929101 -8.700285252e-05 )
( 0.02471183799 -0.0002258719614 -8.691597759e-05 )
( 0.02009592205 -0.0003580246121 -6.643492088e-05 )
( 0.02011982352 -0.0003571133711 -6.652775483e-05 )
( 0.02428126894 -0.0002443447884 -8.531844651e-05 )
( 0.01991473883 -0.0003558825119 -6.700295489e-05 )
( 0.01993753202 -0.000355337339 -6.704246334e-05 )
( 0.01931203343 -0.0003623455996 -6.636342005e-05 )
( 0.01972942799 -0.0003551975242 -6.838313129e-05 )
( 0.01314080041 -0.0003661790397 -5.121747745e-05 )
( 0.008932614699 -0.0002984035818 -3.5899262e-05 )
( 0.0131689962 -0.0003721331013 -5.117863475e-05 )
( 0.01909399964 -0.0003661807859 -6.577216845e-05 )
( 0.008544588462 -0.0002797813795 -3.225568071e-05 )
( 0.01231950521 -0.0003505300847 -4.803671254e-05 )
( 0.008171263151 -0.0002660453029 -3.009623106e-05 )
( 0.006361804903 -0.0001672655781 -1.366284869e-05 )
( 0.006690742448 -0.0001909949351 -1.793774391e-05 )
( 0.00660047587 -0.0001924765384 -1.866321145e-05 )
( 0.006703146733 -0.0001918755152 -1.808903471e-05 )
( 0.00307451468 9.551502444e-06 9.528655937e-06 )
( 0.006605216768 -0.0001750244846 -1.433747821e-05 )
( 0.00233559194 9.251795564e-05 1.774098018e-05 )
( 0.002221358707 8.769420674e-05 1.87541591e-05 )
( 6.867530465e-05 0.0003218804486 3.346718586e-05 )
( -5.272211274e-05 0.0003148286778 3.608169573e-05 )
( -7.133348845e-06 0.000310149102 3.574713992e-05 )
( 0.0004843042116 0.000241153044 3.296702926e-05 )
( -0.0008760661585 0.0004188258317 3.728418233e-05 )
( -0.001033053151 0.0004593648482 3.344169818e-05 )
( -0.001009816886 0.0004949831055 2.559977111e-05 )
( -0.001053596381 0.0004623452551 3.321637632e-05 )
( -0.001471066847 0.0006380738341 -1.073633484e-05 )
( -0.001451524091 0.0005760476342 4.861164598e-06 )
( -0.001444000751 0.0005738983164 5.590473847e-06 )
( -0.001390019665 0.0005316201714 1.803391569e-05 )
( -0.001547054737 0.0006277078646 -1.886296923e-05 )
( -0.001566511113 0.0006731346948 -3.366677629e-05 )
( -0.001643987489 0.0007582204998 -5.311616042e-05 )
( -0.00156807655 0.0006744660786 -3.434753307e-05 )
( -0.001717229374 0.0008706329972 -8.641243767e-05 )
( -0.001569696702 0.0007460726774 -6.684302934e-05 )
( -0.001571935602 0.0007461872883 -6.647904956e-05 )
( -0.001575152739 0.0007157635991 -5.576016702e-05 )
( -0.00158652477 0.0008079654071 -8.561686263e-05 )
( -0.001588121639 0.0008321174537 -9.315605712e-05 )
( -0.001791974995 0.0009852111107 -0.000111555928 )
( -0.001585569931 0.000831935613 -9.344686259e-05 )
( -0.00163310091 0.0009328348679 -0.0001087725759 )
( -0.001454943907 0.0008007561555 -9.594977746e-05 )
( -0.001453574863 0.0008013290935 -9.60361649e-05 )
( -0.001425776631 0.0008237573202 -9.806416347e-05 )
( -0.001473741839 0.0008790461579 -9.969416715e-05 )
( -0.001256751129 0.0007520226645 -8.823524695e-05 )
( -0.001413122634 0.0008609367651 -9.23210755e-05 )
( -0.001492102398 0.0009188258555 -9.483043686e-05 )
( -0.001558416407 0.0009795292281 -9.358025272e-05 )
( -0.00144539203 0.0009110252722 -8.237332804e-05 )
( -0.001515439246 0.0009604730876 -8.307322423e-05 )
( -0.001428343821 0.0009066282073 -7.061255019e-05 )
( -0.001427117852 0.0009067798965 -7.372014079e-05 )
( -0.001277976087 0.0008100292762 -6.451341324e-05 )
( -0.001232816838 0.0007863049395 -6.19567727e-05 )
( -0.001349060447 0.0008560029091 -6.684469554e-05 )
( -0.001427003765 0.0009009242058 -7.104011456e-05 )
( -0.001389541663 0.0008768771659 -6.930537347e-05 )
( -0.001517393044 0.0009542016778 -7.370404637e-05 )
( -0.001470495481 0.0009175278828 -6.866372132e-05 )
( -0.00141517329 0.0008713068673 -6.325386494e-05 )
( -0.001392651582 0.0008506172453 -5.855207564e-05 )
( -0.0015492948 0.000946337299 -6.11801006e-05 )
( 0.02960268781 0.001274716342 -0.0001658037363 )
( 0.02956176922 0.0011870116 -0.0001666293683 )
( 0.02945736982 0.0009935124544 -0.0001701255096 )
( 0.02950877324 0.001083822106 -0.0001682970906 )
( 0.02932528406 0.0008359443746 -0.0001625809819 )
( 0.0292666126 0.000753702654 -0.0001629785984 )
( 0.02913137712 0.0005896823131 -0.0001605924044 )
( 0.02920690551 0.0006754389615 -0.0001629969483 )
( 0.02882057615 0.0004512682499 -0.0001482258958 )
( 0.02874734998 0.0003861858277 -0.0001474874152 )
( 0.02854871564 0.000248906581 -0.0001414784347 )
( 0.02863124758 0.0003095768625 -0.0001427758107 )
( 0.0277219303 0.0001044991513 -0.0001192564887 )
( 0.02776008099 7.052785804e-05 -0.0001220357735 )
( 0.02773885243 6.640775246e-05 -0.0001215946395 )
( 0.02565521747 -0.0001422865025 -9.12070318e-05 )
( 0.02566002496 -0.0001418826141 -9.12414107e-05 )
( 0.02593305893 -0.0001046227117 -9.258552745e-05 )
( 0.0259262491 -0.000105527768 -9.252334712e-05 )
( 0.02308612503 -0.0002737801115 -7.355655544e-05 )
( 0.02287281118 -0.0002925274312 -7.281691796e-05 )
( 0.0224173218 -0.0003085476637 -7.153670595e-05 )
( 0.02256133594 -0.0003188025439 -7.195305079e-05 )
( 0.02428101376 -0.0002442063997 -8.52883677e-05 )
( 0.0221579168 -0.0003233310417 -7.09638407e-05 )
( 0.02195038646 -0.0003182142682 -7.08029329e-05 )
( 0.01723713428 -0.0004107056302 -5.739780681e-05 )
( 0.0190792121 -0.0003825530584 -6.210132415e-05 )
( 0.0170856826 -0.0004236989189 -5.793753007e-05 )
( 0.01562002581 -0.0003994456201 -5.562469596e-05 )
( 0.01608521119 -0.0003996551095 -5.606464038e-05 )
( 0.01510400418 -0.0004041527573 -5.532606883e-05 )
( 0.009736335836 -0.0003447364434 -4.009626718e-05 )
( 0.005222923122 -0.0001480943611 -1.709055141e-05 )
( 0.01166117284 -0.0003646457335 -4.714063834e-05 )
( 0.009862129577 -0.0003292154579 -4.059603816e-05 )
( 0.004636746831 -0.0001101453818 -1.21893363e-05 )
( 0.005226294976 -0.0001368623052 -1.211228937e-05 )
( 0.004622060806 -0.0001106926138 -8.957053069e-06 )
( 0.003273857059 -1.026791142e-05 6.172809663e-06 )
( 0.003501497442 -3.036099952e-05 3.651145107e-06 )
( 0.003920363728 -6.44213651e-05 -1.507689149e-06 )
( 0.003915670328 -7.488148549e-05 -6.086329449e-07 )
( 0.0009208531119 0.0001798243029 2.780538489e-05 )
( 0.001319276053 0.0001479015918 2.544453673e-05 )
( 0.0006600967608 0.0002136471303 3.196767648e-05 )
( 0.0006878128625 0.0002126943873 3.156513412e-05 )
( -0.0008468408487 0.0004007916141 3.941868999e-05 )
( -0.0005555736716 0.0003574994626 4.07773914e-05 )
( -0.0008047035662 0.0003865933395 4.150308087e-05 )
( -0.0005948558683 0.0003553456045 4.166551662e-05 )
( -0.001257138327 0.0004426362575 3.916895002e-05 )
( -0.001249479363 0.0004586130381 3.672557432e-05 )
( -0.001365652541 0.0005059334217 2.490549559e-05 )
( -0.001343546435 0.0004785228521 3.318993549e-05 )
( -0.001514876261 0.0005935218069 -1.025143411e-05 )
( -0.001467037015 0.0005290278932 1.329876977e-05 )
( -0.001483865548 0.0005505043664 4.041253305e-06 )
( -0.001436455525 0.0004954954493 2.128046981e-05 )
( -0.001410561381 0.0005432565813 -1.09346347e-05 )
( -0.001564362552 0.0006711314199 -3.371208368e-05 )
( -0.001528000226 0.0006732136826 -4.722957965e-05 )
( -0.00146737718 0.0006151798298 -3.171130811e-05 )
( -0.001512045506 0.0007571892347 -7.833682321e-05 )
( -0.001564616105 0.0007421720074 -6.625834067e-05 )
( -0.001425908529 0.0006853680243 -6.767968443e-05 )
( -0.00144078501 0.0006595845334 -5.501809937e-05 )
( -0.001422836911 0.0007270156639 -8.029943274e-05 )
( -0.001579491422 0.0008276068838 -9.289674927e-05 )
( -0.001423817128 0.0007576161879 -9.06064015e-05 )
( -0.00134697149 0.0007651639171 -9.363528807e-05 )
( -0.001445687492 0.0007959788782 -9.553232667e-05 )
( -0.001230373979 0.0006791561027 -8.589949721e-05 )
( -0.001099101966 0.0006310425233 -8.181462181e-05 )
( -0.001071352744 0.0006322851987 -8.098313265e-05 )
( -0.00111095747 0.0006730706664 -7.799702871e-05 )
( -0.001112169237 0.0006740497192 -7.79684342e-05 )
( -0.00132084894 0.0008191019297 -8.299748879e-05 )
( -0.001167665236 0.0007257990073 -7.418491441e-05 )
( -0.001111421851 0.0007009597612 -6.756093353e-05 )
( -0.001219937112 0.000767678197 -6.821138959e-05 )
( -0.001284161583 0.0008115998935 -6.397524703e-05 )
( -0.001143271802 0.0007242496358 -6.0254235e-05 )
( -0.001086032134 0.0006885828916 -5.619082367e-05 )
( -0.0009994620923 0.0006322078989 -5.209260053e-05 )
( -0.001164891175 0.0007386453799 -5.901903569e-05 )
( -0.001235845149 0.0007755377446 -6.302216207e-05 )
( -0.001158614643 0.0007204713183 -5.982484436e-05 )
( -0.001335238223 0.0008344971575 -6.530476094e-05 )
( -0.001273737755 0.0007884775987 -6.09720264e-05 )
( -0.001229926245 0.000754942419 -5.638358925e-05 )
( -0.001230069669 0.0007549449801 -5.635848356e-05 )
( -0.001208859961 0.0007331647212 -5.214570047e-05 )
( -0.001208752743 0.0007331594243 -5.216568388e-05 )
( -0.001350449049 0.0008146233158 -5.401957242e-05 )
( 0.02955173701 0.001207766705 -0.0001581672113 )
( 0.02950588427 0.00112157478 -0.0001583100384 )
( 0.02938422188 0.000923428277 -0.0001606135484 )
( 0.02944421023 0.001017574337 -0.0001589599997 )
( 0.02910987101 0.0007568442379 -0.0001487073459 )
( 0.02903992869 0.0006739600794 -0.0001491848379 )
( 0.02889469825 0.0005202927277 -0.0001487248228 )
( 0.02896843292 0.0005951469066 -0.0001491043658 )
( 0.02815179154 0.0003483049513 -0.0001233847288 )
( 0.02814884111 0.0003462539171 -0.0001233661023 )
( 0.02805577591 0.0002827115241 -0.0001230400376 )
( 0.02805797011 0.0002846956486 -0.0001230473135 )
( 0.027850613 0.0001593872148 -0.0001207293171 )
( 0.027852837 0.0001612063934 -0.0001207551977 )
( 0.02796680853 0.0002217635629 -0.0001220408012 )
( 0.02796452865 0.0002197889407 -0.0001220151535 )
( 0.02678049169 2.67945361e-05 -9.961303294e-05 )
( 0.0276804138 9.861373837e-05 -0.0001182021006 )
( 0.02567748353 -7.715710672e-05 -8.529649494e-05 )
( 0.02566245943 -7.684245793e-05 -8.505859296e-05 )
( 0.02380376868 -0.0002618214639 -7.565825217e-05 )
( 0.02387885749 -0.0002433679037 -7.527035632e-05 )
( 0.02410658821 -0.0001992561447 -7.270710921e-05 )
( 0.02408160456 -0.000217371402 -7.582858962e-05 )
( 0.02012326196 -0.0003696984786 -6.056205893e-05 )
( 0.01909508929 -0.0003915684647 -5.647735816e-05 )
( 0.0187620651 -0.0003772205382 -5.697394954e-05 )
( 0.01901320741 -0.0003803429427 -5.745568342e-05 )
( 0.01786612719 -0.0003904690675 -5.708721073e-05 )
( 0.01822078228 -0.0003760003601 -5.636565038e-05 )
( 0.01802230999 -0.0003832543734 -5.649891318e-05 )
( 0.01327889692 -0.0004186690203 -4.798669761e-05 )
( 0.0161981266 -0.0004203913559 -5.322031575e-05 )
( 0.01264617592 -0.0004075194593 -4.696568431e-05 )
( 0.01104892511 -0.0003684124677 -4.457088653e-05 )
( 0.0118921008 -0.0003886992927 -4.617548257e-05 )
( 0.01089256536 -0.0003669839934 -4.481730139e-05 )