/*--------------------------------*- C++ -*----------------------------------*\
  =========                 |
  \\      /  F ield         | OpenFOAM: The Open Source CFD Toolbox
   \\    /   O peration     | Website:  https://openfoam.org
    \\  /    A nd           | Version:  8
     \\/     M anipulation  |
\*---------------------------------------------------------------------------*/






FoamFile
{
    version     2.0;
    format      ascii;
    class       volScalarField;
    location    "0";
    object      pDDES;
}
// * * * * * * * * * * * * * * * * * * * * * * * * * * * * * * * * * * * * * //

dimensions      [0 2 -2 0 0 0 0];


internalField   nonuniform List<scalar> 
12992
(
-2.039622268e-05
-1.744080146e-05
-1.693145532e-05
-1.451851767e-05
-1.390377383e-05
-1.429795338e-05
-1.55469661e-05
-1.093145238e-05
-1.166455877e-05
-1.251033518e-05
-1.123595848e-05
-1.041122869e-05
-1.189785144e-05
-8.0755417e-06
-8.284596333e-06
-9.483555004e-06
-8.92159278e-06
-8.892786354e-06
-7.390173323e-06
-8.572761544e-06
-7.976143024e-06
-1.008285835e-05
-9.479002983e-06
-6.602846497e-06
-5.371079624e-06
-5.45838202e-06
-4.430569788e-06
-5.865720141e-06
-6.259297606e-06
-7.007701242e-06
-6.437673164e-06
-4.941520274e-06
-5.514526038e-06
-6.615967322e-06
-5.882088772e-06
-8.160127436e-06
-7.501163964e-06
-3.053871751e-06
-3.13756891e-06
-3.890704193e-06
-2.785015113e-06
-1.630513452e-06
-2.011665629e-06
-2.533570978e-06
-3.358197546e-06
-3.957996341e-06
-9.524595953e-06
-3.587509809e-06
-4.982539849e-06
-4.284627721e-06
-2.833149438e-06
-3.523096439e-06
-4.244169759e-06
-3.591909717e-06
-5.770929874e-06
-5.139583209e-06
-1.130601731e-06
-5.905551461e-07
2.547381541e-07
-1.652401579e-06
-6.286389862e-07
-1.722324754e-07
-6.069219012e-07
8.204846722e-07
3.023981776e-07
4.080328608e-08
-5.730398698e-07
-1.293548394e-06
-1.967398703e-06
-6.816618679e-06
-1.094657478e-06
-2.666599812e-06
-2.057329311e-06
-5.94184371e-07
-1.187999942e-06
-2.549930514e-06
-1.803738655e-06
-4.043344688e-06
-3.310989541e-06
7.983118735e-07
1.443097062e-06
3.011651188e-06
2.543795517e-06
1.238430855e-06
1.657790563e-06
2.115865527e-06
2.092734348e-06
2.008179536e-06
9.103697494e-07
2.54339011e-06
2.872646519e-06
2.202641781e-06
2.29326929e-06
1.71041745e-06
9.196259043e-07
2.951206852e-07
-4.294841801e-06
4.265125995e-07
-1.03941602e-06
-3.042037235e-07
1.148519686e-06
4.37101221e-07
-9.794929383e-07
-2.354369713e-07
-2.45334536e-06
-1.724176173e-06
3.144164111e-06
3.706727512e-06
5.358727776e-06
3.811359647e-06
4.811223789e-06
4.224270924e-06
3.624597866e-06
4.210837687e-06
3.594109785e-06
4.019110747e-06
5.045946182e-06
5.150032393e-06
3.828549779e-06
5.625518043e-06
5.141068868e-06
5.054959274e-06
4.509920473e-06
4.028836884e-06
3.320129508e-06
2.595288606e-06
1.879929187e-06
-2.139506705e-06
2.969830803e-06
5.144789839e-07
1.258548764e-06
2.711497473e-06
1.991385489e-06
3.84535582e-07
1.121485639e-06
-1.079959247e-06
-3.532259711e-07
4.739961241e-06
5.425233212e-06
7.465396266e-06
5.968442565e-06
7.115846984e-06
6.552279501e-06
5.894801689e-06
6.414307791e-06
6.7805463e-06
6.765144462e-06
7.239045772e-06
6.132635463e-06
8.57797022e-06
8.237554539e-06
7.753253158e-06
6.413616575e-06
6.905005648e-06
7.914983144e-06
7.273300525e-06
6.760965334e-06
6.106925412e-06
5.579482604e-06
4.871147212e-06
4.156166142e-06
3.437954092e-06
3.802581432e-07
5.32645754e-06
1.866450134e-06
2.601494089e-06
4.055338195e-06
3.33489038e-06
1.404566888e-06
2.137939873e-06
-4.970235068e-08
6.727816526e-07
6.28705493e-06
6.981967545e-06
8.880067071e-06
8.188016182e-06
8.527458704e-06
8.618377251e-06
7.418349924e-06
8.056817023e-06
9.088419574e-06
9.580263395e-06
9.324678103e-06
9.054481779e-06
1.034047909e-05
1.158544364e-05
1.023649565e-05
1.128807162e-05
1.076617173e-05
1.053582491e-05
9.920804587e-06
8.57564919e-06
9.19109516e-06
9.966619473e-06
9.456011867e-06
8.336848623e-06
7.667065802e-06
6.91052719e-06
6.203581506e-06
5.494040124e-06
4.779698429e-06
2.570303423e-06
8.401613741e-06
2.874335905e-06
3.606439805e-06
5.051508197e-06
4.332389835e-06
2.133597718e-06
2.858468861e-06
6.863568274e-07
1.4046567e-06
7.613371054e-06
8.308891665e-06
1.077125853e-05
9.283363397e-06
1.03005932e-05
9.859772945e-06
9.003383639e-06
9.649053027e-06
1.1228738e-05
1.184883877e-05
1.277584215e-05
1.322290882e-05
1.300613258e-05
1.160083502e-05
1.425876144e-05
1.383398558e-05
1.357361452e-05
1.213877204e-05
1.26564828e-05
1.32557243e-05
1.260590579e-05
1.286294992e-05
1.210345727e-05
1.073635303e-05
1.128286203e-05
1.114275346e-05
1.049597449e-05
9.675570254e-06
9.002677871e-06
7.894232112e-06
7.192828434e-06
6.483532161e-06
5.769619747e-06
6.366098205e-06
1.122970662e-05
3.591588893e-06
4.318293577e-06
5.755824532e-06
5.042289558e-06
2.612635399e-06
3.336812142e-06
1.174428121e-06
1.89110574e-06
8.595858162e-06
9.291748029e-06
1.229959162e-05
1.137166055e-05
1.165077447e-05
1.201306623e-05
1.034191064e-05
1.099589463e-05
1.368641097e-05
1.424852599e-05
1.46139746e-05
1.517165401e-05
1.561097633e-05
1.688641169e-05
1.730754229e-05
1.640540722e-05
1.506651279e-05
1.630113911e-05
1.605201578e-05
1.611192056e-05
1.551980495e-05
1.400629026e-05
1.474686906e-05
1.569475899e-05
1.509626054e-05
1.440092001e-05
1.340285326e-05
1.182040432e-05
1.249428715e-05
1.33196645e-05
1.266286017e-05
1.065617107e-05
9.981836229e-06
8.595528925e-06
7.893906513e-06
7.185977665e-06
6.472314453e-06
1.140863969e-05
9.055996998e-06
1.520953356e-05
4.062721018e-06
4.788500974e-06
6.224226581e-06
5.509429229e-06
2.89870718e-06
3.617445373e-06
1.465348305e-06
2.177674787e-06
9.294310075e-06
9.987364137e-06
1.32882833e-05
1.295411857e-05
1.263344075e-05
1.360640636e-05
1.132086072e-05
1.197747406e-05
1.535307274e-05
1.608814819e-05
1.670941128e-05
1.75637233e-05
1.798855919e-05
1.955530388e-05
2.124447929e-05
1.707302727e-05
1.921540024e-05
1.951187005e-05
1.869117659e-05
1.832576163e-05
1.709181197e-05
1.744257679e-05
1.902783333e-05
1.836042975e-05
1.844769395e-05
1.798903031e-05
1.648847683e-05
1.709249409e-05
1.756822348e-05
1.684266681e-05
1.629814324e-05
1.53833862e-05
1.400677138e-05
1.468460141e-05
1.493626951e-05
1.426920608e-05
1.135088314e-05
1.067715311e-05
9.059707736e-06
8.358500963e-06
7.650951375e-06
6.938058505e-06
1.570825771e-05
1.224311654e-05
1.967306889e-05
1.848429201e-05
4.341362001e-06
5.062738637e-06
6.499352821e-06
5.784993391e-06
3.044638333e-06
3.762679853e-06
1.611697371e-06
2.326974027e-06
9.754915482e-06
1.044679357e-05
1.398747281e-05
1.394563242e-05
1.333131149e-05
1.460433577e-05
1.20158702e-05
1.267223524e-05
1.701899782e-05
1.77352249e-05
1.927517224e-05
1.99220558e-05
1.962491842e-05
2.02468982e-05
2.348039379e-05
2.138503623e-05
2.459699863e-05
2.158580901e-05
2.188183134e-05
2.136681724e-05
2.179388503e-05
2.092924296e-05
1.955808511e-05
2.042773667e-05
2.136617331e-05
2.07682242e-05
2.042396591e-05
1.973121289e-05
1.830440669e-05
1.901020005e-05
1.918473572e-05
1.846229134e-05
1.771615462e-05
1.701177644e-05
1.561935278e-05
1.63084369e-05
1.594275454e-05
1.527101995e-05
1.180852087e-05
1.113332837e-05
9.328231499e-06
8.628287105e-06
7.922004443e-06
7.212474884e-06
2.388946632e-05
2.138939453e-05
4.481542874e-06
5.202611192e-06
6.638970717e-06
5.924727247e-06
3.103858035e-06
3.818472123e-06
1.672673989e-06
2.386461119e-06
1.002619047e-05
1.071477254e-05
1.445004546e-05
1.464839897e-05
1.379009063e-05
1.53105284e-05
1.247337696e-05
1.313102439e-05
1.843057544e-05
1.914267159e-05
2.114766176e-05
2.186493111e-05
2.236186992e-05
2.322289765e-05
2.684163337e-05
2.470941217e-05
2.36636115e-05
2.785507786e-05
2.665687498e-05
2.301823588e-05
2.417096584e-05
2.490710722e-05
2.406841304e-05
2.433931513e-05
2.370113543e-05
2.223583215e-05
2.285317896e-05
2.337648039e-05
2.263151873e-05
2.207299622e-05
2.134954411e-05
1.990126475e-05
2.062699423e-05
2.058405153e-05
1.986458665e-05
1.873475048e-05
1.802542465e-05
1.662693467e-05
1.731891462e-05
1.665367563e-05
1.597998744e-05
1.207631885e-05
1.140170934e-05
9.462927665e-06
8.762814105e-06
8.059305401e-06
7.351509794e-06
2.609135299e-05
2.665454667e-05
4.539338079e-06
5.256900749e-06
6.693705473e-06
5.979657999e-06
3.117570941e-06
3.835144071e-06
1.687139502e-06
2.402097834e-06
1.016128772e-05
1.085199074e-05
1.471990072e-05
1.511193022e-05
1.405989497e-05
1.577634248e-05
1.274066653e-05
1.33989879e-05
1.945396434e-05
2.01720577e-05
2.281817251e-05
2.358593156e-05
2.523130024e-05
2.5911595e-05
2.90991502e-05
3.014421418e-05
2.824008152e-05
2.620335363e-05
2.780202522e-05
2.647496694e-05
3.051349631e-05
2.910028525e-05
2.581766239e-05
2.72874895e-05
2.767673868e-05
2.687679262e-05
2.654692616e-05
2.575929284e-05
2.417175892e-05
2.495476474e-05
2.518274414e-05
2.43824561e-05
2.35282605e-05
2.278248394e-05
2.131317342e-05
2.204169868e-05
2.162674718e-05
2.089946429e-05
1.944819269e-05
1.873637302e-05
1.733778117e-05
1.803003579e-05
1.71213087e-05
1.644701479e-05
1.221029925e-05
1.153611538e-05
9.519528248e-06
8.821016309e-06
8.1166163e-06
7.406394161e-06
2.892940029e-05
3.070900129e-05
4.554633051e-06
5.273816896e-06
6.707456123e-06
5.993942523e-06
3.118132327e-06
3.837112672e-06
1.687749545e-06
2.400047833e-06
1.021677326e-05
1.09061175e-05
1.485412577e-05
1.538318975e-05
1.419373257e-05
1.604892714e-05
1.287466876e-05
1.353309381e-05
2.016867256e-05
2.08901547e-05
2.429666165e-05
2.507943464e-05
2.738392141e-05
2.823353498e-05
3.166449096e-05
3.156218008e-05
3.284799823e-05
2.940121703e-05
2.892129851e-05
3.129135075e-05
3.301131437e-05
3.159803964e-05
2.892765224e-05
2.99598305e-05
3.009079956e-05
2.914443212e-05
2.849584416e-05
2.764972851e-05
2.599053914e-05
2.681898877e-05
2.671799484e-05
2.58986056e-05
2.461824624e-05
2.385559492e-05
2.236357614e-05
2.310349737e-05
2.23517327e-05
2.161928751e-05
1.991303725e-05
1.920188515e-05
1.780467392e-05
1.84968012e-05
1.739416621e-05
1.671979226e-05
1.226353561e-05
1.159038038e-05
9.534037417e-06
8.839542716e-06
8.132236871e-06
7.423139323e-06
3.054997433e-05
3.151422061e-05
3.304813436e-05
3.437338455e-05
3.315401409e-05
4.559274203e-06
5.276737284e-06
6.709245099e-06
5.99444229e-06
1.023143886e-05
1.091985177e-05
1.49071393e-05
1.551763307e-05
1.424677612e-05
1.618397073e-05
1.292785964e-05
1.358676036e-05
2.063307329e-05
2.135501381e-05
2.540301284e-05
2.620527448e-05
2.937078534e-05
3.027696221e-05
3.398544504e-05
3.260045196e-05
3.412097794e-05
3.49732145e-05
3.145622759e-05
3.405264579e-05
3.551113332e-05
3.349527469e-05
3.1124815e-05
3.222176747e-05
3.217762423e-05
3.122050839e-05
3.018378447e-05
2.929142829e-05
2.756000322e-05
2.841449168e-05
2.787470112e-05
2.703141945e-05
2.537175169e-05
2.459893585e-05
2.309294359e-05
2.383918218e-05
2.281830166e-05
2.208462865e-05
2.018230589e-05
1.947162673e-05
1.807739682e-05
1.876862916e-05
1.752972639e-05
1.685496136e-05
1.227869598e-05
1.160392731e-05
9.539094208e-06
8.839676411e-06
8.135174539e-06
7.422963336e-06
3.473497054e-05
3.632226435e-05
3.691820893e-05
3.547046435e-05
1.023413279e-05
1.092411549e-05
1.492217598e-05
1.557114956e-05
1.426152539e-05
1.623738353e-05
1.294313097e-05
1.360149508e-05
2.090083035e-05
2.162219789e-05
2.616648089e-05
2.698098797e-05
3.110407124e-05
3.205808753e-05
3.619617564e-05
3.418076813e-05
3.549187386e-05
3.618917981e-05
3.700000889e-05
3.595312955e-05
3.52068746e-05
3.74362171e-05
3.486643254e-05
3.31442352e-05
3.409217243e-05
3.400310743e-05
3.304365964e-05
3.147738244e-05
3.054552872e-05
2.874241909e-05
2.963159204e-05
2.86796585e-05
2.782011506e-05
2.58532491e-05
2.507493991e-05
2.356185541e-05
2.431117355e-05
2.30837486e-05
2.235062493e-05
2.031313124e-05
1.960420013e-05
1.821170372e-05
1.890219755e-05
1.758155668e-05
1.690784484e-05
1.228019937e-05
1.160696775e-05
3.763141649e-05
3.869186912e-05
3.888500578e-05
3.737647421e-05
1.49226471e-05
1.558506665e-05
1.426243216e-05
1.625083132e-05
1.294404683e-05
1.360287661e-05
2.103003862e-05
2.175122427e-05
2.665302236e-05
2.747430517e-05
3.243899482e-05
3.343852586e-05
3.810706403e-05
3.653767271e-05
3.810289854e-05
3.764923167e-05
3.788590038e-05
3.881197335e-05
3.77837132e-05
3.694407133e-05
3.893222311e-05
3.647652193e-05
3.491156895e-05
3.577643656e-05
3.543803541e-05
3.446722985e-05
3.238779027e-05
3.142544665e-05
2.956713797e-05
3.048234976e-05
2.919104736e-05
2.832125392e-05
2.612304525e-05
2.534220039e-05
2.382659477e-05
2.457677147e-05
2.321100692e-05
2.247845987e-05
2.036225487e-05
1.965448246e-05
1.826342486e-05
1.895295827e-05
1.759445331e-05
1.692103615e-05
4.009475379e-05
4.114991316e-05
4.045465903e-05
4.076482583e-05
3.985510921e-05
1.558514487e-05
1.625106233e-05
2.107804903e-05
2.179737567e-05
2.692548514e-05
2.774968743e-05
3.338207171e-05
3.442174784e-05
3.959398236e-05
3.874467075e-05
4.005779556e-05
3.935088898e-05
3.96594769e-05
4.02154219e-05
3.936340727e-05
3.961221228e-05
3.833324809e-05
4.003135837e-05
3.777515303e-05
3.628978084e-05
3.709163866e-05
3.648873098e-05
3.54961594e-05
3.297512012e-05
3.19927276e-05
3.009127431e-05
3.102581468e-05
2.947524445e-05
2.860003042e-05
2.624818444e-05
2.546685755e-05
2.3952025e-05
2.470205072e-05
2.325486457e-05
2.252449121e-05
2.037282866e-05
1.966536729e-05
1.827573033e-05
1.896473259e-05
1.759440784e-05
1.692041042e-05
4.198584429e-05
4.171043474e-05
4.309476208e-05
4.227805402e-05
4.264551535e-05
4.183318379e-05
2.108660192e-05
2.180579759e-05
2.705071529e-05
2.787596168e-05
3.399527486e-05
3.506544454e-05
4.067163172e-05
4.067492773e-05
4.155936404e-05
4.07121006e-05
4.10828834e-05
4.121944221e-05
4.119125515e-05
4.148382868e-05
3.935501081e-05
4.078859274e-05
3.872083835e-05
3.728457523e-05
3.803550499e-05
3.720988389e-05
3.618613118e-05
3.33106218e-05
3.231227674e-05
3.038261275e-05
3.133026985e-05
2.960502752e-05
2.872752157e-05
2.628956281e-05
2.550932186e-05
2.399552068e-05
2.474444591e-05
2.326111826e-05
2.253095954e-05
2.037037484e-05
1.966380296e-05
1.827536107e-05
1.896395406e-05
4.391775292e-05
4.35845468e-05
4.460802302e-05
4.373844422e-05
4.412777707e-05
4.332372555e-05
2.108433546e-05
2.180202864e-05
2.709230648e-05
2.791701445e-05
3.434753307e-05
3.544398351e-05
4.140378587e-05
4.217086826e-05
4.264793097e-05
4.169456952e-05
4.211666237e-05
4.188453386e-05
4.265602183e-05
4.296091356e-05
4.005375376e-05
4.126461863e-05
3.935372297e-05
3.794988879e-05
3.865923645e-05
3.766475857e-05
3.660437869e-05
3.346875383e-05
3.246498818e-05
3.051691237e-05
3.14710669e-05
2.964758278e-05
2.876845247e-05
2.629204209e-05
2.551240505e-05
2.399981531e-05
2.474846951e-05
2.32559596e-05
2.252666309e-05
4.544912008e-05
4.509368227e-05
4.570778401e-05
4.478984192e-05
4.520074435e-05
4.439075565e-05
2.709357977e-05
2.791802217e-05
3.452138117e-05
3.563573046e-05
4.186190927e-05
4.325855843e-05
4.337802238e-05
4.234532389e-05
4.280826397e-05
4.228135731e-05
4.372839976e-05
4.402907143e-05
4.04890925e-05
4.153480768e-05
3.973606363e-05
3.835288953e-05
3.902750177e-05
3.792284406e-05
3.682957686e-05
3.352786007e-05
3.251897579e-05
3.056165224e-05
3.152069257e-05
2.964914529e-05
2.876962208e-05
2.628442599e-05
2.550496356e-05
2.399399455e-05
2.474214307e-05
4.657184763e-05
4.620408436e-05
4.644804721e-05
4.548829747e-05
4.591924153e-05
4.509689097e-05
2.708556349e-05
2.79098731e-05
3.458817082e-05
3.571912748e-05
4.211371197e-05
4.399585305e-05
4.382240149e-05
4.272923979e-05
4.322463792e-05
4.248803452e-05
4.446027378e-05
4.474763409e-05
4.072594311e-05
4.167751104e-05
3.993627251e-05
3.856645708e-05
3.921455209e-05
3.805674714e-05
3.69359841e-05
3.353871216e-05
3.252883107e-05
3.056488276e-05
3.15256475e-05
2.964197847e-05
2.876111648e-05
4.734168397e-05
4.696549149e-05
4.689938942e-05
4.590297976e-05
4.635333244e-05
4.551659003e-05
3.460608423e-05
3.57475983e-05
4.224601071e-05
4.444985461e-05
4.405886284e-05
4.292471931e-05
4.344429908e-05
4.257825276e-05
4.491660366e-05
4.518435162e-05
4.084676038e-05
4.175513823e-05
4.002695277e-05
3.866144834e-05
3.92909169e-05
3.812555951e-05
3.698442015e-05
3.353910506e-05
3.25220899e-05
3.055794878e-05
3.152089266e-05
4.782681572e-05
4.744061516e-05
4.714284296e-05
4.611573968e-05
4.658327452e-05
4.573330807e-05
3.460910011e-05
3.575937444e-05
4.2309126e-05
4.470063141e-05
4.416692536e-05
4.300465298e-05
4.353734403e-05
4.26083825e-05
4.517157868e-05
4.541844828e-05
4.090442599e-05
4.177457231e-05
4.00584031e-05
3.869536522e-05
3.931231913e-05
3.810614362e-05
3.70135167e-05
4.809870006e-05
4.770664964e-05
4.725809049e-05
4.620859545e-05
4.668891779e-05
4.582417023e-05
4.231963248e-05
4.482146323e-05
4.421421909e-05
4.302745947e-05
4.357128273e-05
4.262964285e-05
4.529954822e-05
4.552750397e-05
4.093326061e-05
4.007400275e-05
3.872625166e-05
3.931596802e-05
4.824018106e-05
4.783874101e-05
4.730917863e-05
4.623677523e-05
4.673020521e-05
4.585269926e-05
4.488364357e-05
4.42368837e-05
4.303252354e-05
4.358567094e-05
4.536288179e-05
4.556449494e-05
4.830308535e-05
4.790497405e-05
4.733939932e-05
4.625264046e-05
4.675145465e-05
4.585681745e-05
4.490540232e-05
4.536672714e-05
4.558967703e-05
4.831996557e-05
4.792819163e-05
-1.405977673e-05
-1.406297361e-05
-1.486280598e-05
-1.408245498e-05
-1.486313977e-05
-1.567636173e-05
-1.414584585e-05
-1.488403905e-05
-1.567816798e-05
-1.649385013e-05
-1.430200518e-05
-1.494879416e-05
-1.569774759e-05
-1.649602746e-05
-1.732051169e-05
-1.460356907e-05
-1.510309721e-05
-1.576190334e-05
-1.651431194e-05
-1.732185592e-05
-1.815300129e-05
-1.511175105e-05
-1.540650373e-05
-1.591778164e-05
-1.658017209e-05
-1.734342186e-05
-1.815635551e-05
-1.899866584e-05
-1.587060433e-05
-1.591317232e-05
-1.621841147e-05
-1.67339349e-05
-1.740687367e-05
-1.817477096e-05
-1.900086318e-05
-1.984599658e-05
-1.694838284e-05
-1.66816717e-05
-1.672995677e-05
-1.703782254e-05
-1.756562415e-05
-1.824237188e-05
-1.902161421e-05
-1.984922892e-05
-2.06967652e-05
-1.838150456e-05
-1.776082172e-05
-1.749465991e-05
-1.754904952e-05
-1.787155634e-05
-1.840126788e-05
-1.9086885e-05
-1.986791722e-05
-2.070117625e-05
-2.15487471e-05
-2.001879511e-05
-1.920031718e-05
-1.858621908e-05
-1.832028101e-05
-1.838277603e-05
-1.871013228e-05
-1.924888238e-05
-1.993608748e-05
-2.072091229e-05
-2.155129368e-05
-2.239933019e-05
-2.08335041e-05
-2.186772144e-05
-2.002815381e-05
-1.940438415e-05
-1.915139001e-05
-1.922598494e-05
-1.956061169e-05
-2.009784293e-05
-2.078975194e-05
-2.157311064e-05
-2.240498907e-05
-2.324915658e-05
-2.166853301e-05
-2.254084393e-05
-2.421415775e-05
-2.085158485e-05
-2.023856359e-05
-2.000025779e-05
-2.007671355e-05
-2.04111293e-05
-2.095323362e-05
-2.164147736e-05
-2.242454502e-05
-2.325224705e-05
-2.409682747e-05
-2.249157478e-05
-2.35556563e-05
-2.499553375e-05
-2.635131932e-05
-2.168869651e-05
-2.108899753e-05
-2.085207961e-05
-2.093048533e-05
-2.126725485e-05
-2.180460615e-05
-2.249317004e-05
-2.327326365e-05
-2.410208253e-05
-2.494302316e-05
-2.334152305e-05
-2.421301724e-05
-2.595026672e-05
-2.699725337e-05
-2.88045012e-05
-2.253901948e-05
-2.194555782e-05
-2.170964399e-05
-2.179047442e-05
-2.211980427e-05
-2.265699914e-05
-2.334081728e-05
-2.412272443e-05
-2.494647561e-05
-2.579517241e-05
-2.419514749e-05
-2.520681301e-05
-2.67058258e-05
-2.810650403e-05
-3.283574551e-05
-3.05430076e-05
-2.340835272e-05
-2.281562774e-05
-2.258091445e-05
-2.264642899e-05
-2.297292485e-05
-2.35042753e-05
-2.418912663e-05
-2.496777961e-05
-2.579811553e-05
-2.665073043e-05
-2.507172758e-05
-2.597192361e-05
-2.760378993e-05
-2.869550553e-05
-3.558949174e-05
-3.426708281e-05
-3.221191218e-05
-2.427588151e-05
-2.368616151e-05
-2.343536653e-05
-2.350256182e-05
-2.382187813e-05
-2.435260103e-05
-2.503460746e-05
-2.582139314e-05
-2.665415013e-05
-2.750999192e-05
-2.594629768e-05
-2.696283264e-05
-2.845281233e-05
-2.970963578e-05
-3.908270446e-05
-3.632488369e-05
-3.400678906e-05
-3.041456694e-05
-2.515945744e-05
-2.454754576e-05
-2.429453343e-05
-2.435177521e-05
-2.466869046e-05
-2.519469672e-05
-2.588527968e-05
-2.667536864e-05
-2.751237298e-05
-2.836412386e-05
-2.683263665e-05
-2.774685345e-05
-2.946274799e-05
-3.779453982e-05
-4.263357187e-05
-3.582682257e-05
-3.22564083e-05
-3.150288831e-05
-2.601720371e-05
-2.54061124e-05
-2.51469628e-05
-2.52005666e-05
-2.551067519e-05
-2.604419569e-05
-2.674002826e-05
-2.753579975e-05
-2.836843123e-05
-2.921839041e-05
-2.770221363e-05
-2.875601058e-05
-3.02894332e-05
-3.987570381e-05
-4.632093624e-05
-4.136825737e-05
-3.761431799e-05
-3.33640528e-05
-3.404626841e-05
-2.688680433e-05
-2.626461719e-05
-2.600173866e-05
-2.603898429e-05
-2.63549955e-05
-2.689584471e-05
-2.759832932e-05
-2.838935325e-05
-2.922138628e-05
-3.007147643e-05
-2.858635526e-05
-2.946460882e-05
-3.125548392e-05
-4.494682071e-05
-5.009077722e-05
-4.347322465e-05
-3.940399984e-05
-3.582638601e-05
-3.515491699e-05
-3.202459993e-05
-2.775038593e-05
-2.713198228e-05
-2.683883031e-05
-2.688229688e-05
-2.720699922e-05
-2.775567009e-05
-2.845361269e-05
-2.924431465e-05
-3.007359192e-05
-3.092474071e-05
-2.944079824e-05
-3.050595478e-05
-4.713609087e-05
-4.116530545e-05
-5.377702473e-05
-4.856750093e-05
-3.690081212e-05
-3.7625814e-05
-3.373841901e-05
-3.296891373e-05
-2.861451503e-05
-2.795937689e-05
-2.767189471e-05
-2.77276522e-05
-2.806357588e-05
-2.860900167e-05
-2.930663322e-05
-3.009391185e-05
-3.092671614e-05
-3.177243343e-05
-3.031610322e-05
-3.122098133e-05
-4.277619882e-05
-3.931394895e-05
-3.868997374e-05
-5.202838656e-05
-5.730548583e-05
-5.060409603e-05
-4.455044473e-05
-3.472219032e-05
-3.553478746e-05
-2.944744483e-05
-2.879048043e-05
-2.851539466e-05
-2.858539119e-05
-2.891742224e-05
-2.946245695e-05
-3.015754555e-05
-3.094649583e-05
-3.177540566e-05
-3.26233021e-05
-3.114048741e-05
-3.220915096e-05
-4.026999522e-05
-4.088636342e-05
-3.7331778e-05
-3.651870793e-05
-5.40619294e-05
-4.793313929e-05
-5.553587471e-05
-6.093995762e-05
-4.626460213e-05
-4.268149132e-05
-4.200821058e-05
-3.296954674e-05
-3.027639286e-05
-2.962348117e-05
-2.936754208e-05
-2.943642539e-05
-2.976867108e-05
-3.031077722e-05
-3.100894901e-05
-3.179531268e-05
-3.262683822e-05
-3.347556049e-05
-3.199301864e-05
-3.811164061e-05
-3.889466097e-05
-3.46789202e-05
-3.393348379e-05
-4.971264934e-05
-4.612062548e-05
-4.543842806e-05
-5.146299372e-05
-5.76588136e-05
-5.918640818e-05
-6.467527419e-05
-4.373481352e-05
-4.435424489e-05
-4.058731429e-05
-3.980674956e-05
-3.111327896e-05
-3.047480459e-05
-3.021786324e-05
-3.028693754e-05
-3.061664756e-05
-3.116166408e-05
-3.185763853e-05
-3.264816041e-05
-3.34815777e-05
-3.432957601e-05
-3.28228416e-05
-3.562265556e-05
-3.631424988e-05
-4.722542508e-05
-4.785254714e-05
-4.421758058e-05
-4.334315599e-05
-4.955386976e-05
-4.891621211e-05
-5.329338092e-05
-6.139527977e-05
-5.512374992e-05
-6.857824337e-05
-6.296732317e-05
-4.153160626e-05
-4.237956819e-05
-3.800445484e-05
-3.729365926e-05
-3.19611645e-05
-3.132047277e-05
-3.106634176e-05
-3.113202547e-05
-3.146585004e-05
-3.201080472e-05
-3.271006426e-05
-3.350124462e-05
-3.433294478e-05
-3.518626181e-05
-3.367506724e-05
-3.450607619e-05
-4.512203668e-05
-4.585925126e-05
-4.148254084e-05
-4.076679397e-05
-4.751671077e-05
-5.073068678e-05
-4.673510557e-05
-5.139235873e-05
-5.699101894e-05
-5.327858526e-05
-5.257460361e-05
-6.681684317e-05
-7.262929284e-05
-6.520972238e-05
-5.889814202e-05
-3.89855486e-05
-3.971634578e-05
-3.619277777e-05
-3.536137228e-05
-3.280205783e-05
-3.21674961e-05
-3.191062569e-05
-3.198151535e-05
-3.231531446e-05
-3.28629576e-05
-3.356329762e-05
-3.435452527e-05
-3.518955782e-05
-3.604920857e-05
-4.247981633e-05
-4.318088031e-05
-3.960668619e-05
-3.876121991e-05
-4.488405102e-05
-4.84633747e-05
-4.419858305e-05
-4.932712909e-05
-5.44355571e-05
-5.514832083e-05
-5.125452299e-05
-5.034382411e-05
-6.912349636e-05
-6.271307211e-05
-7.675260713e-05
-7.075387839e-05
-6.080056482e-05
-5.707573291e-05
-5.637572758e-05
-3.705083145e-05
-3.789133189e-05
-3.448990174e-05
-3.364885197e-05
-3.301029574e-05
-3.27590169e-05
-3.283075785e-05
-3.316881339e-05
-3.371672938e-05
-3.441676017e-05
-3.520946848e-05
-3.605217353e-05
-3.691573147e-05
-4.048109986e-05
-4.133357652e-05
-3.789961556e-05
-3.704749179e-05
-4.30817563e-05
-4.597014049e-05
-4.221568088e-05
-4.667006942e-05
-5.226759822e-05
-5.3157004e-05
-4.856698069e-05
-4.779261872e-05
-6.46343542e-05
-6.078286606e-05
-6.007014599e-05
-7.477161125e-05
-8.089072799e-05
-7.312393427e-05
-6.664413377e-05
-5.822706953e-05
-5.890343164e-05
-5.504966975e-05
-5.420269008e-05
-3.534033385e-05
-3.618884875e-05
-3.386038588e-05
-3.360894698e-05
-3.368485341e-05
-3.402126094e-05
-3.457068306e-05
-3.527217632e-05
-3.60706872e-05
-3.691785241e-05
-3.779157487e-05
-3.876167102e-05
-3.961836046e-05
-3.641741932e-05
-3.556546289e-05
-4.135800918e-05
-4.39832038e-05
-4.048734991e-05
-4.487165643e-05
-4.966058987e-05
-5.041738768e-05
-4.670745693e-05
-4.57969436e-05
-6.206365651e-05
-6.281772221e-05
-5.873644477e-05
-5.776973558e-05
-7.716245455e-05
-7.06362116e-05
-8.489849279e-05
-7.884880324e-05
-6.862056762e-05
-6.474338443e-05
-6.396763638e-05
-5.599253564e-05
-5.678724847e-05
-5.229718226e-05
-5.155852705e-05
-3.470887168e-05
-3.446444316e-05
-3.453706449e-05
-3.487638605e-05
-3.542666673e-05
-3.6134119e-05
-3.693698091e-05
-3.779341205e-05
-3.867332634e-05
-3.727554213e-05
-3.813043077e-05
-3.531601033e-05
-3.986434967e-05
-4.224678196e-05
-3.899574222e-05
-4.313954923e-05
-4.764570986e-05
-4.856036685e-05
-4.496506153e-05
-4.405184882e-05
-5.989775673e-05
-6.078742445e-05
-5.600795339e-05
-5.523359141e-05
-7.264231681e-05
-6.876075349e-05
-6.801156269e-05
-8.294414147e-05
-8.8961453e-05
-8.121563587e-05
-7.470448327e-05
-6.598740583e-05
-6.679196667e-05
-6.255560584e-05
-6.174135342e-05
-5.338093615e-05
-5.413024337e-05
-5.042150588e-05
-4.950076982e-05
-3.539219688e-05
-3.573200229e-05
-3.628870036e-05
-3.700148955e-05
-3.781371197e-05
-3.867766281e-05
-3.956172804e-05
-3.617214315e-05
-3.702679533e-05
-3.875844413e-05
-4.074929529e-05
-3.789002221e-05
-4.163973426e-05
-4.588966112e-05
-4.68063372e-05
-4.345365596e-05
-4.254551095e-05
-5.722454807e-05
-5.80172491e-05
-5.417547436e-05
-5.324558515e-05
-7.005673979e-05
-7.088365965e-05
-6.663921522e-05
-6.57183482e-05
-8.53430829e-05
-7.877348253e-05
-9.344218415e-05
-8.714247815e-05
-7.671555795e-05
-7.287692279e-05
-7.210729382e-05
-6.369113544e-05
-6.463716272e-05
-5.985073585e-05
-5.905101352e-05
-5.13670675e-05
-5.229244198e-05
-4.865484516e-05
-4.773215915e-05
-3.624746387e-05
-3.659437061e-05
-3.715714411e-05
-3.787919923e-05
-3.869711509e-05
-3.95665229e-05
-4.045287278e-05
-3.797795944e-05
-3.964058851e-05
-3.711004319e-05
-4.052949225e-05
-4.437104508e-05
-4.528371574e-05
-4.233299114e-05
-4.142975376e-05
-5.51324556e-05
-5.606878403e-05
-5.240067912e-05
-5.146551848e-05
-6.780727563e-05
-6.879131979e-05
-6.385022425e-05
-6.30201539e-05
-8.097632235e-05
-7.686571189e-05
-7.607937005e-05
-9.165710071e-05
-9.789304022e-05
-8.9780282e-05
-8.303439245e-05
-7.408040983e-05
-7.484176604e-05
-7.072014705e-05
-6.98566364e-05
-6.10233983e-05
-6.18783306e-05
-5.799047722e-05
-5.703759598e-05
-4.959096259e-05
-5.052087363e-05
-4.711997099e-05
-4.620185064e-05
-3.746224684e-05
-3.803483924e-05
-3.876292976e-05
-3.95883726e-05
-4.045879905e-05
-4.134957999e-05
-3.885837941e-05
-3.974540232e-05
-4.324330803e-05
-4.41524935e-05
-4.154045018e-05
-4.064150198e-05
-5.334603702e-05
-5.428717486e-05
-5.085685552e-05
-4.991966489e-05
-6.508929073e-05
-6.597860192e-05
-6.196818867e-05
-6.096782454e-05
-7.827713125e-05
-7.908431871e-05
-7.469433331e-05
-7.375454152e-05
-9.423738811e-05
-8.759076445e-05
-9.606723324e-05
-0.0001023156365
-8.539040573e-05
-8.112865908e-05
-8.027076547e-05
-7.177717634e-05
-7.268178888e-05
-6.799511175e-05
-6.71142916e-05
-5.897892697e-05
-5.995414904e-05
-5.620115553e-05
-5.524380322e-05
-4.804885248e-05
-4.897946928e-05
-4.598105443e-05
-4.506598634e-05
-3.834086237e-05
-3.891904271e-05
-3.96528776e-05
-4.048109258e-05
-4.135566996e-05
-4.225041994e-05
-3.922653195e-05
-4.244553202e-05
-4.335149788e-05
-4.10155335e-05
-4.011968485e-05
-5.179627624e-05
-5.273775969e-05
-4.97049441e-05
-4.87704383e-05
-6.300577661e-05
-6.402232248e-05
-6.016790576e-05
-5.916145165e-05
-7.588182052e-05
-7.686669414e-05
-7.210745389e-05
-7.122853276e-05
-8.985332533e-05
-8.5610518e-05
-8.478609379e-05
-9.210861026e-05
-9.865401807e-05
-0.0001004301885
-8.263465861e-05
-8.346588584e-05
-7.880305202e-05
-7.777963765e-05
-6.916848361e-05
-7.004317013e-05
-6.609598495e-05
-6.507129001e-05
-5.71780256e-05
-5.815798431e-05
-5.464662172e-05
-5.36899679e-05
-4.690433707e-05
-4.783214172e-05
-4.517538036e-05
-4.426282976e-05
-3.980996553e-05
-4.0545925e-05
-4.137843644e-05
-4.225479643e-05
-4.31551598e-05
-4.191687549e-05
-4.282018199e-05
-4.070389696e-05
-5.064405559e-05
-5.158438944e-05
-4.888781041e-05
-4.795457789e-05
-6.119409227e-05
-6.221733929e-05
-5.859984958e-05
-5.759470878e-05
-7.335427654e-05
-7.427137461e-05
-7.027633546e-05
-6.92381509e-05
-8.702785999e-05
-8.79220097e-05
-8.313586295e-05
-8.212685498e-05
-9.020591096e-05
-8.928401803e-05
-9.431564831e-05
-9.647939441e-05
-8.005488053e-05
-8.102653373e-05
-7.635505608e-05
-7.541596278e-05
-6.715161726e-05
-6.817762187e-05
-6.428544293e-05
-6.325486174e-05
-5.561789294e-05
-5.659712042e-05
-5.349101411e-05
-5.253514973e-05
-4.609565804e-05
-4.702006117e-05
-4.464215817e-05
-4.37290546e-05
-4.14444221e-05
-4.227736645e-05
-4.315851038e-05
-4.406725566e-05
-4.160323442e-05
-4.250422353e-05
-4.982398968e-05
-5.076460366e-05
-4.834371794e-05
-4.74126573e-05
-5.961954957e-05
-6.064132685e-05
-5.743218571e-05
-5.643014447e-05
-7.135430496e-05
-7.2410352e-05
-6.846406905e-05
-6.741582911e-05
-8.439554949e-05
-8.540334238e-05
-8.073760546e-05
-7.980536611e-05
-8.761201752e-05
-9.160848276e-05
-8.65642287e-05
-9.241539374e-05
-9.455257532e-05
-9.376562957e-05
-7.764716429e-05
-7.855252625e-05
-7.457812171e-05
-7.350793749e-05
-6.532943371e-05
-6.636551552e-05
-6.270127778e-05
-6.16730249e-05
-5.44606919e-05
-5.543665611e-05
-5.266803419e-05
-5.171249359e-05
-4.555951818e-05
-4.648252798e-05
-4.432473725e-05
-4.34114736e-05
-4.234473818e-05