/*--------------------------------*- C++ -*----------------------------------*\
  =========                 |
  \\      /  F ield         | OpenFOAM: The Open Source CFD Toolbox
   \\    /   O peration     | Website:  https://openfoam.org
    \\  /    A nd           | Version:  8
     \\/     M anipulation  |
\*---------------------------------------------------------------------------*/






FoamFile
{
    version     2.0;
    format      ascii;
    class       volSymmTensorField;
    location    "0";
    object      TauDDES;
}
// * * * * * * * * * * * * * * * * * * * * * * * * * * * * * * * * * * * * * //

dimensions      [0 2 -2 0 0 0 0];


internalField   nonuniform List<symmTensor>
12992
(
( 3.371533967e-05 -9.436537766e-06 3.451534383e-07 2.366012995e-05 -1.450973599e-07 3.671261584e-05 )
( 3.366864621e-05 -9.303402294e-06 5.148722835e-07 2.357682024e-05 -2.93197445e-07 3.671562808e-05 )
( 3.230020593e-05 -7.518478014e-06 7.395295398e-08 2.008520278e-05 9.13630771e-09 3.72564391e-05 )
( 3.351911801e-05 -9.095474525e-06 6.461218618e-07 2.340997889e-05 -3.340970522e-07 3.691692473e-05 )
( 3.238106729e-05 -7.464932423e-06 2.270492985e-07 2.001888424e-05 -1.143197395e-07 3.742340778e-05 )
( 3.15962352e-05 -6.384548215e-06 -4.955671429e-08 1.771185816e-05 6.123868701e-08 3.773847129e-05 )
( 3.147145253e-05 -6.351448519e-06 -8.178149358e-08 1.771640382e-05 8.269293517e-08 3.77003671e-05 )
( 3.233156895e-05 -7.349226507e-06 4.185066302e-07 1.985783638e-05 -1.975595865e-07 3.779554754e-05 )
( 3.32754571e-05 -8.851958228e-06 7.363948953e-07 2.326783761e-05 -2.580614478e-07 3.734243001e-05 )
( 3.169216143e-05 -6.392840987e-06 2.720672398e-08 1.770553899e-05 -6.931522023e-11 3.785079389e-05 )
( 3.174291123e-05 -6.388151178e-06 9.181870553e-08 1.767410322e-05 -3.974244933e-08 3.798305988e-05 )
( 3.060786912e-05 -4.683400221e-06 -1.396723093e-07 1.380285175e-05 9.12990572e-08 3.856429248e-05 )
( 3.041252603e-05 -4.618294952e-06 -1.717720295e-07 1.379159403e-05 1.080510614e-07 3.853199814e-05 )
( 3.222252417e-05 -7.201243989e-06 5.763628792e-07 1.974321458e-05 -1.760829633e-07 3.828716581e-05 )
( 3.178707266e-05 -6.332326848e-06 2.873504457e-07 1.75083369e-05 -1.321814977e-07 3.841009675e-05 )
( 3.175893653e-05 -6.348711395e-06 2.089340541e-07 1.756943129e-05 -9.943435941e-08 3.822693543e-05 )
( 3.297477087e-05 -8.580380381e-06 8.066426176e-07 2.329647759e-05 -2.082110484e-07 3.801733328e-05 )
( 3.077125439e-05 -4.743383215e-06 -1.064426698e-07 1.381967922e-05 6.672559039e-08 3.863753591e-05 )
( 3.091841791e-05 -4.79419441e-06 -7.26512539e-08 1.383750805e-05 3.620555944e-08 3.877022755e-05 )
( 3.011181616e-05 -3.809838745e-06 -2.102278671e-07 1.164915921e-05 1.036226607e-07 3.890581502e-05 )
( 3.018156895e-05 -3.826342436e-06 -1.884097571e-07 1.161290311e-05 9.4579093e-08 3.891306551e-05 )
( 2.992261943e-05 -3.774583547e-06 -2.247966364e-07 1.16903384e-05 1.191279821e-07 3.887461935e-05 )
( 2.997291631e-05 -3.768506758e-06 -2.16642519e-07 1.162759509e-05 1.16334391e-07 3.888161154e-05 )
( 3.178139013e-05 -6.271342954e-06 3.863275424e-07 1.743644498e-05 -1.309001334e-07 3.868424028e-05 )
( 3.209097486e-05 -7.021941201e-06 6.681527225e-07 1.983862785e-05 -1.676784649e-07 3.895183181e-05 )
( 3.180930071e-05 -6.229209248e-06 4.424128406e-07 1.745638656e-05 -1.202289468e-07 3.886414561e-05 )
( 3.114685751e-05 -4.789473678e-06 1.075850875e-08 1.368976609e-05 -5.223152044e-08 3.914466288e-05 )
( 3.103153722e-05 -4.790508683e-06 -2.968956636e-08 1.374812564e-05 -5.763217459e-09 3.895726695e-05 )
( 3.256073251e-05 -8.306509699e-06 8.296722172e-07 2.33276005e-05 -2.67063399e-07 3.909007501e-05 )
( 3.029932122e-05 -3.859932349e-06 -1.841909807e-07 1.161024647e-05 8.148506225e-08 3.895588088e-05 )
( 3.036187991e-05 -3.88133094e-06 -1.90239831e-07 1.161381624e-05 7.575899019e-08 3.897905844e-05 )
( 3.055161142e-05 -3.944299806e-06 -1.952155344e-07 1.164740479e-05 5.236994127e-08 3.911269232e-05 )
( 3.048855433e-05 -3.927501439e-06 -1.921963388e-07 1.165486901e-05 6.208242098e-08 3.905843187e-05 )
( 2.970839887e-05 -3.069081686e-06 -2.452158583e-07 9.621369827e-06 1.104537972e-07 3.898435534e-05 )
( 2.979128294e-05 -3.068405704e-06 -2.359360991e-07 9.539626262e-06 9.136741141e-08 3.900532465e-05 )
( 2.955076707e-05 -3.075853101e-06 -2.452122772e-07 9.727142242e-06 1.352132131e-07 3.894665133e-05 )
( 2.963568113e-05 -3.088599897e-06 -2.528161644e-07 9.688225873e-06 1.192665025e-07 3.896747512e-05 )
( 3.127807577e-05 -4.793111202e-06 6.648958362e-08 1.371207327e-05 -6.486215653e-08 3.932370237e-05 )
( 3.182663568e-05 -6.218367162e-06 5.506350362e-07 1.794828495e-05 -1.587802956e-07 3.94692288e-05 )
( 3.180753265e-05 -6.145931366e-06 5.004559398e-07 1.754966252e-05 -1.217191823e-07 3.91953472e-05 )
( 3.184503657e-05 -6.879839475e-06 7.273908977e-07 1.993679689e-05 -2.528957452e-07 4.002849164e-05 )
( 3.139479668e-05 -4.748182164e-06 1.15755995e-07 1.371392591e-05 -5.460204022e-08 3.94771123e-05 )
( 3.085234493e-05 -3.943588581e-06 -1.663621987e-07 1.151038214e-05 -3.80887144e-08 3.945705612e-05 )
( 3.078999725e-05 -3.943968295e-06 -1.767922981e-07 1.151522702e-05 -2.017435108e-08 3.939127419e-05 )
( 3.06906586e-05 -3.9198585e-06 -1.778158207e-07 1.149045056e-05 1.049194331e-08 3.929076775e-05 )
( 3.064682096e-05 -3.934721462e-06 -1.759834447e-07 1.156150302e-05 2.859171744e-08 3.922472388e-05 )
( 3.385879972e-05 -9.835862329e-06 8.141475405e-07 2.61540099e-05 -2.651611055e-07 3.835459938e-05 )
( 3.192750228e-05 -8.027528565e-06 8.250321457e-07 2.307465365e-05 -3.936498558e-07 4.042044748e-05 )
( 2.986087929e-05 -3.05504841e-06 -2.342500522e-07 9.48892739e-06 7.963873827e-08 3.902968456e-05 )
( 2.994659008e-05 -3.067068747e-06 -2.487975621e-07 9.46245018e-06 6.853461088e-08 3.906959319e-05 )
( 3.017158451e-05 -3.14314093e-06 -2.670650758e-07 9.537438018e-06 4.893692562e-08 3.9176266e-05 )
( 3.006695988e-05 -3.11997519e-06 -2.678501687e-07 9.56526128e-06 5.893681632e-08 3.911718522e-05 )
( 2.92675777e-05 -2.29266152e-06 -2.341881782e-07 7.345618542e-06 9.923948596e-08 3.879024371e-05 )
( 2.930904702e-05 -2.285488335e-06 -2.325687092e-07 7.294654097e-06 8.380443717e-08 3.879754513e-05 )
( 2.914030483e-05 -2.320115527e-06 -2.09783579e-07 7.430950063e-06 1.298873116e-07 3.873073001e-05 )
( 2.918350219e-05 -2.305344196e-06 -2.151518856e-07 7.3789015e-06 1.168586152e-07 3.875853872e-05 )
( 3.09537354e-05 -3.946324341e-06 -1.398606457e-07 1.15089033e-05 -4.006205501e-08 3.957588342e-05 )
( 3.102458868e-05 -3.941474006e-06 -1.267940632e-07 1.151313791e-05 -3.821358874e-08 3.962200208e-05 )
( 3.161436689e-05 -4.989057743e-06 2.809420891e-07 1.4603831e-05 -1.240688476e-07 3.990216646e-05 )
( 3.176728933e-05 -6.174584087e-06 5.820362503e-07 1.803077066e-05 -2.124222362e-07 4.00856261e-05 )
( 3.151903729e-05 -4.846738193e-06 1.933834142e-07 1.411689482e-05 -7.129499124e-08 3.963459676e-05 )
( 3.132853817e-05 -6.732452675e-06 8.423461964e-07 1.980369052e-05 -3.663874395e-07 4.13712587e-05 )
( 3.170471609e-05 -6.170473625e-06 6.203077874e-07 1.805600004e-05 -2.367943353e-07 4.057126353e-05 )
( 3.118023596e-05 -3.907220616e-06 -9.133962919e-08 1.152747518e-05 -2.149290523e-08 3.969938189e-05 )
( 3.112140621e-05 -3.915157322e-06 -1.136261716e-07 1.150547087e-05 -2.284586564e-08 3.967474186e-05 )
( 3.052073953e-05 -3.183556373e-06 -2.580084981e-07 9.481355846e-06 -2.867582438e-08 3.947371079e-05 )
( 3.043817742e-05 -3.172841389e-06 -2.661700762e-07 9.492780919e-06 -1.638191272e-08 3.939236558e-05 )
( 3.034603105e-05 -3.149877557e-06 -2.614990819e-07 9.436021173e-06 1.345254219e-08 3.931246829e-05 )
( 3.026560807e-05 -3.140037279e-06 -2.620890314e-07 9.487497664e-06 3.187154718e-08 3.925073179e-05 )
( 3.330070103e-05 -9.44389285e-06 7.238853641e-07 2.587704148e-05 -3.519036795e-07 3.952997577e-05 )
( 3.1186657e-05 -7.678563634e-06 8.129875368e-07 2.266458796e-05 -4.418758976e-07 4.167984298e-05 )
( 2.939461956e-05 -2.264509931e-06 -2.531437815e-07 7.255402124e-06 6.648814832e-08 3.884295802e-05 )
( 2.945781489e-05 -2.279005457e-06 -2.6214434e-07 7.265155091e-06 5.448615781e-08 3.886939157e-05 )
( 2.967106775e-05 -2.344480436e-06 -2.822141028e-07 7.311726222e-06 3.315260599e-08 3.896853741e-05 )
( 2.958444384e-05 -2.303652536e-06 -2.755265882e-07 7.290907888e-06 4.18617212e-08 3.893020039e-05 )
( 2.862984911e-05 -1.747083161e-06 -1.748815492e-07 5.616358976e-06 9.239595045e-08 3.804965672e-05 )
( 2.867222793e-05 -1.731092311e-06 -1.961503244e-07 5.564032563e-06 7.538940849e-08 3.807870235e-05 )
( 2.852749094e-05 -1.775564442e-06 -1.390216227e-07 5.675499779e-06 1.218995749e-07 3.798597754e-05 )
( 2.857723302e-05 -1.758299959e-06 -1.58150371e-07 5.612989298e-06 1.059908428e-07 3.80216843e-05 )
( 3.063509575e-05 -3.198683999e-06 -2.298137076e-07 9.517166291e-06 -3.406186266e-08 3.957581794e-05 )
( 3.072274922e-05 -3.20377967e-06 -2.259841949e-07 9.494457117e-06 -2.268578747e-08 3.962531991e-05 )
( 3.148602264e-05 -4.120613994e-06 1.022216196e-07 1.207085097e-05 -9.724436012e-08 4.0025825e-05 )
( 3.143603317e-05 -4.092888048e-06 5.485826193e-08 1.204177443e-05 -7.571698291e-08 3.991977428e-05 )
( 3.166776878e-05 -5.109242011e-06 3.682484078e-07 1.493400578e-05 -1.731640822e-07 4.031414574e-05 )
( 3.126177762e-05 -3.911918611e-06 -5.143651549e-08 1.156373946e-05 -2.906174501e-08 3.975059371e-05 )
( 3.133157588e-05 -3.935801487e-06 -1.390412141e-08 1.162519766e-05 -4.448685331e-08 3.980544716e-05 )
( 3.061263851e-05 -6.528100585e-06 9.835040373e-07 1.977346619e-05 -4.229895296e-07 4.264653762e-05 )
( 3.124680006e-05 -6.093267984e-06 8.121364203e-07 1.796100696e-05 -3.298026456e-07 4.190771506e-05 )
( 3.146915333e-05 -6.137473974e-06 7.119195971e-07 1.799638994e-05 -2.887636015e-07 4.133623952e-05 )
( 3.165799717e-05 -5.115782642e-06 4.493961114e-07 1.491325202e-05 -1.783239014e-07 4.084013563e-05 )
( 3.088901212e-05 -3.194331839e-06 -1.988703957e-07 9.489162039e-06 -6.358190863e-09 3.9617109e-05 )
( 3.082698458e-05 -3.20568256e-06 -2.119793692e-07 9.546857655e-06 -1.098532731e-08 3.963509153e-05 )
( 3.009023203e-05 -2.429429514e-06 -2.738683236e-07 7.283318155e-06 -3.139941285e-08 3.921873576e-05 )
( 3.000715878e-05 -2.415968083e-06 -2.844866458e-07 7.289720998e-06 -1.842776776e-08 3.916307833e-05 )
( 2.988379129e-05 -2.386493179e-06 -2.83315984e-07 7.250346698e-06 1.108466763e-09 3.90837813e-05 )
( 2.980007048e-05 -2.360225153e-06 -2.793764509e-07 7.275194093e-06 1.43335539e-08 3.903992911e-05 )
( 3.266736167e-05 -9.069677617e-06 6.11036171e-07 2.538498484e-05 -4.082089617e-07 4.060386709e-05 )
( 3.065271085e-05 -7.441257367e-06 8.063626638e-07 2.253418279e-05 -3.950992493e-07 4.240543421e-05 )
( 2.87273142e-05 -1.720733394e-06 -2.141148343e-07 5.586920906e-06 6.106532879e-08 3.81118989e-05 )
( 2.878816122e-05 -1.714634095e-06 -2.307504445e-07 5.55523502e-06 4.700299883e-08 3.815380842e-05 )
( 2.89629661e-05 -1.759644647e-06 -2.455292361e-07 5.581449841e-06 2.642346431e-08 3.824696614e-05 )
( 2.887177106e-05 -1.73550211e-06 -2.397699745e-07 5.601936664e-06 3.825299189e-08 3.819952326e-05 )
( 2.750341264e-05 -1.277700335e-06 -7.925709156e-08 4.039849955e-06 8.29906881e-08 3.647320409e-05 )
( 2.752794171e-05 -1.266494337e-06 -9.94949545e-08 4.006547442e-06 7.044091888e-08 3.65068081e-05 )
( 2.742905599e-05 -1.309311187e-06 -3.32867458e-08 4.084258762e-06 1.046594704e-07 3.639928764e-05 )
( 2.747098915e-05 -1.300103918e-06 -5.675472892e-08 4.044582965e-06 9.42517957e-08 3.644074604e-05 )
( 3.020090844e-05 -2.426394758e-06 -2.567152535e-07 7.258111509e-06 -3.102452339e-08 3.930141247e-05 )
( 3.027825187e-05 -2.447442967e-06 -2.469844844e-07 7.276869383e-06 -2.688592815e-08 3.931393076e-05 )
( 3.127276068e-05 -3.357644118e-06 -2.071993954e-08 9.71881218e-06 -4.658278741e-08 3.981802001e-05 )
( 3.15387224e-05 -4.155874194e-06 1.701544932e-07 1.208666527e-05 -1.256021989e-07 4.027598698e-05 )
( 3.11858239e-05 -3.306419558e-06 -7.375010114e-08 9.696757843e-06 -3.404895565e-08 3.970547914e-05 )
( 3.159274638e-05 -4.196347163e-06 2.117526492e-07 1.215868815e-05 -1.246530275e-07 4.041151988e-05 )
( 3.097539229e-05 -3.202320613e-06 -1.588412459e-07 9.523882909e-06 -1.428881813e-08 3.960102185e-05 )
( 3.106638542e-05 -3.233639291e-06 -1.251055437e-07 9.532533113e-06 -1.838162689e-08 3.961994662e-05 )
( 3.079569797e-05 -5.934766705e-06 9.636289633e-07 1.787013935e-05 -3.721613382e-07 4.277409971e-05 )
( 2.982322439e-05 -6.179855973e-06 1.0770583e-06 1.962393799e-05 -3.577565053e-07 4.374559649e-05 )
( 3.045198173e-05 -5.699725534e-06 1.057116719e-06 1.749681178e-05 -3.734868699e-07 4.344227636e-05 )
( 3.139038745e-05 -5.112092822e-06 6.998889717e-07 1.493290711e-05 -2.022993613e-07 4.20762226e-05 )
( 3.156961247e-05 -5.131275884e-06 5.597486279e-07 1.492600586e-05 -1.735361934e-07 4.142353646e-05 )
( 3.162499343e-05 -4.188076673e-06 3.317774144e-07 1.204496039e-05 -1.018045879e-07 4.088052083e-05 )
( 3.161482528e-05 -4.175292361e-06 2.799175149e-07 1.203518514e-05 -1.142808941e-07 4.0695606e-05 )
( 3.04529749e-05 -2.485549658e-06 -2.159059704e-07 7.3314568e-06 -2.069288962e-09 3.926194768e-05 )
( 3.03843899e-05 -2.456540187e-06 -2.360320366e-07 7.297595403e-06 -1.200340805e-08 3.930530875e-05 )
( 2.937459794e-05 -1.864928322e-06 -2.370789218e-07 5.579850495e-06 -2.781046327e-08 3.841910075e-05 )
( 2.927868263e-05 -1.852581022e-06 -2.445962366e-07 5.610823337e-06 -2.044669678e-08 3.837507029e-05 )
( 2.916792073e-05 -1.824526635e-06 -2.518058011e-07 5.579930985e-06 -5.600786501e-09 3.832807124e-05 )
( 2.906668306e-05 -1.797839559e-06 -2.489040867e-07 5.616283943e-06 1.104756286e-08 3.828789704e-05 )
( 3.215251127e-05 -8.743910257e-06 6.051272976e-07 2.485514415e-05 -4.432412197e-07 4.13445523e-05 )
( 3.003848542e-05 -7.014692528e-06 9.333803064e-07 2.189300358e-05 -2.848508984e-07 4.324483962e-05 )
( 2.755389141e-05 -1.242767325e-06 -1.220129207e-07 4.014605111e-06 5.773377865e-08 3.653732347e-05 )
( 2.757996845e-05 -1.241772452e-06 -1.376999137e-07 3.992400707e-06 4.630089023e-08 3.657110938e-05 )
( 2.767892875e-05 -1.262916157e-06 -1.601533057e-07 3.997437034e-06 3.152296912e-08 3.662067684e-05 )
( 2.762547774e-05 -1.240034976e-06 -1.506887912e-07 4.012544196e-06 4.030903966e-08 3.660304719e-05 )
( 2.577618034e-05 -8.826033877e-07 3.852787245e-08 2.677404154e-06 6.96878999e-08 3.401480353e-05 )
( 2.57861775e-05 -8.681587929e-07 1.389455484e-08 2.658309768e-06 6.125793561e-08 3.404384915e-05 )
( 2.573404709e-05 -9.099567251e-07 9.05267683e-08 2.709062755e-06 8.258092521e-08 3.394130908e-05 )
( 2.575882172e-05 -9.00921691e-07 6.332798108e-08 2.685333129e-06 7.602621821e-08 3.398361514e-05 )
( 2.946970199e-05 -1.881879484e-06 -2.237313197e-07 5.605674687e-06 -3.382035274e-08 3.846361142e-05 )
( 2.955400851e-05 -1.89138575e-06 -2.114691426e-07 5.578474429e-06 -2.817087719e-08 3.847658809e-05 )
( 3.095862485e-05 -2.691691407e-06 -7.290232418e-08 7.605249721e-06 -4.275045207e-09 3.94044655e-05 )
( 3.136943633e-05 -3.430568995e-06 5.22160768e-08 9.850435163e-06 -6.959889731e-08 3.99834862e-05 )
( 3.077433212e-05 -2.592356395e-06 -1.174942099e-07 7.418281257e-06 2.926074494e-09 3.925064084e-05 )
( 3.144636867e-05 -3.452010105e-06 1.066244124e-07 9.819038496e-06 -6.463683633e-08 4.012783393e-05 )
( 3.054534682e-05 -2.49147547e-06 -1.855779459e-07 7.300028301e-06 1.467411304e-09 3.921590178e-05 )
( 3.064251359e-05 -2.531654218e-06 -1.60116258e-07 7.334958354e-06 3.874230714e-09 3.920525705e-05 )
( 3.112250852e-05 -4.958594218e-06 8.414897366e-07 1.46764869e-05 -2.405857344e-07 4.282759983e-05 )
( 2.882900299e-05 -5.505273293e-06 1.156546091e-06 1.879295451e-05 -1.536262459e-07 4.505697871e-05 )
( 2.948428482e-05 -5.299406439e-06 1.168239237e-06 1.736421109e-05 -3.101952757e-07 4.479631752e-05 )
( 2.997002775e-05 -5.542358394e-06 1.116459089e-06 1.753927791e-05 -3.59938241e-07 4.412392445e-05 )
( 3.076923167e-05 -4.719012395e-06 9.540055999e-07 1.425433948e-05 -2.748523968e-07 4.366191206e-05 )
( 3.151241253e-05 -4.230571449e-06 6.153827599e-07 1.215255543e-05 -8.861641732e-08 4.205281584e-05 )
( 3.156464663e-05 -4.226832061e-06 5.542129884e-07 1.211026301e-05 -7.822038128e-08 4.179909592e-05 )
( 3.162382927e-05 -4.211164651e-06 4.116431285e-07 1.208445701e-05 -8.271088348e-08 4.121709208e-05 )
( 3.161883797e-05 -4.225481916e-06 4.710080361e-07 1.210872506e-05 -7.48772564e-08 4.142725084e-05 )
( 3.154812657e-05 -3.456764489e-06 2.369197887e-07 9.751448488e-06 -3.964710515e-08 4.053331941e-05 )
( 3.151096826e-05 -3.465642067e-06 1.750554475e-07 9.827120266e-06 -5.273935955e-08 4.032576908e-05 )
( 2.973576011e-05 -1.947860937e-06 -1.75919098e-07 5.628011877e-06 -3.707144591e-09 3.842124352e-05 )
( 2.964451051e-05 -1.920409886e-06 -1.958694043e-07 5.631603472e-06 -1.417418183e-08 3.845655374e-05 )
( 2.801460869e-05 -1.354973278e-06 -1.557695271e-07 3.996659871e-06 -1.232775038e-08 3.665262921e-05 )
( 2.792770283e-05 -1.329517659e-06 -1.637003777e-07 4.012131285e-06 -4.64677008e-09 3.663672032e-05 )
( 2.783355376e-05 -1.312375957e-06 -1.698007139e-07 3.993487098e-06 7.516874234e-09 3.662788367e-05 )
( 2.774986933e-05 -1.279420303e-06 -1.679517112e-07 4.010796602e-06 1.942914452e-08 3.662741437e-05 )
( 3.159296466e-05 -8.472652553e-06 7.639123396e-07 2.425437742e-05 -4.033962568e-07 4.185933358e-05 )
( 2.954318006e-05 -6.911371202e-06 1.121446985e-06 2.157217386e-05 -7.883803477e-08 4.365699715e-05 )
( 2.579041757e-05 -8.4904093e-07 -5.815717685e-09 2.658733592e-06 5.181307827e-08 3.406320684e-05 )
( 2.579649481e-05 -8.422332485e-07 -2.333780103e-08 2.646708708e-06 4.389298525e-08 3.408738849e-05 )
( 2.582841626e-05 -8.454261433e-07 -5.313884799e-08 2.639072363e-06 3.348905153e-08 3.408516568e-05 )
( 2.580673026e-05 -8.37168102e-07 -3.605035914e-08 2.650066108e-06 3.934833259e-08 3.409662168e-05 )
( 2.344885797e-05 -5.831705607e-07 1.264266274e-07 1.662279715e-06 5.742211684e-08 3.073745393e-05 )
( 2.344910172e-05 -5.7127113e-07 1.006104284e-07 1.651424327e-06 5.340755749e-08 3.075548739e-05 )
( 2.342233529e-05 -6.084212032e-07 1.843908137e-07 1.684046083e-06 6.512645712e-08 3.066439604e-05 )
( 2.343936285e-05 -5.988248404e-07 1.560059673e-07 1.668866275e-06 6.080995263e-08 3.070523235e-05 )
( 2.809891521e-05 -1.367085588e-06 -1.426349456e-07 4.010106295e-06 -1.722689902e-08 3.667314013e-05 )
( 2.817459608e-05 -1.390209377e-06 -1.288819504e-07 3.986937372e-06 -1.596503729e-08 3.668497084e-05 )
( 3.040496449e-05 -2.247459634e-06 -5.530371538e-08 6.200401003e-06 1.050831777e-08 3.869412467e-05 )
( 3.109856698e-05 -2.75304933e-06 -2.393562681e-09 7.675886081e-06 -1.949769235e-08 3.956766886e-05 )
( 3.015381662e-05 -2.111900358e-06 -9.693783198e-08 5.911679182e-06 1.099025049e-08 3.848121196e-05 )
( 3.122481212e-05 -2.804049245e-06 4.592348546e-08 7.758632819e-06 -1.681948802e-08 3.964598727e-05 )
( 2.983696868e-05 -1.982974936e-06 -1.526807267e-07 5.690075341e-06 5.27718047e-09 3.837586701e-05 )
( 2.994655006e-05 -2.011678816e-06 -1.313252795e-07 5.682024494e-06 1.207724054e-08 3.835829557e-05 )
( 3.137638123e-05 -4.199198884e-06 7.254169532e-07 1.217543286e-05 -1.28053415e-07 4.248857294e-05 )
( 3.127358286e-05 -4.191077096e-06 7.80734581e-07 1.221861021e-05 -1.568113106e-07 4.278978304e-05 )
( 2.874013626e-05 -4.742580131e-06 1.230882845e-06 1.659370173e-05 -1.68772047e-07 4.587383592e-05 )
( 2.800438597e-05 -5.052574124e-06 1.27229589e-06 1.828798122e-05 9.593738781e-08 4.587958028e-05 )
( 2.829237928e-05 -4.469147825e-06 1.241088285e-06 1.634979344e-05 -3.46609923e-08 4.645402805e-05 )
( 2.977600525e-05 -4.225471457e-06 1.110420044e-06 1.37214065e-05 -2.846215352e-07 4.546010314e-05 )
( 3.032674795e-05 -4.468744464e-06 1.039847575e-06 1.388498185e-05 -3.024856596e-07 4.454965892e-05 )
( 3.096244473e-05 -4.016205821e-06 8.809597034e-07 1.191700903e-05 -2.092798184e-07 4.365951827e-05 )
( 3.111553815e-05 -4.048269147e-06 8.478962741e-07 1.191266983e-05 -1.803851859e-07 4.331764649e-05 )
( 3.15797588e-05 -3.528413799e-06 5.018172828e-07 9.889959074e-06 -5.580615081e-09 4.160307799e-05 )
( 3.16088408e-05 -3.529669812e-06 4.314939304e-07 9.907218555e-06 3.308544549e-09 4.13306625e-05 )
( 3.15892903e-05 -3.494825705e-06 3.09135487e-07 9.86435407e-06 -2.134225774e-08 4.080415601e-05 )
( 3.162054418e-05 -3.504940878e-06 3.655721343e-07 9.841471183e-06 -4.623456284e-09 4.103894389e-05 )
( 3.141924026e-05 -2.827995559e-06 1.640669609e-07 7.726494005e-06 4.888836003e-10 3.997900058e-05 )
( 3.13367309e-05 -2.808219278e-06 1.192796617e-07 7.709189958e-06 -9.442080895e-09 3.983334682e-05 )
( 2.834763836e-05 -1.44006367e-06 -1.015073323e-07 4.004726634e-06 5.388060664e-09 3.663700772e-05 )
( 2.826196396e-05 -1.40980967e-06 -1.164599936e-07 4.010082648e-06 -6.877283631e-09 3.667062992e-05 )
( 2.604925612e-05 -9.121517905e-07 -6.503311312e-08 2.641018455e-06 8.420243169e-09 3.396958346e-05 )
( 2.598361789e-05 -8.887371905e-07 -6.95107687e-08 2.645657105e-06 1.289156515e-08 3.399260822e-05 )
( 2.5919373e-05 -8.738999213e-07 -7.119474077e-08 2.636920954e-06 2.050538228e-08 3.401791764e-05 )
( 2.586518895e-05 -8.543675563e-07 -6.396473395e-08 2.644393589e-06 2.731731641e-08 3.405382813e-05 )
( 3.163452129e-05 -8.849681763e-06 9.739196685e-07 2.416990719e-05 -3.196861087e-07 4.167854058e-05 )
( 2.885129652e-05 -6.626100003e-06 1.381750394e-06 2.106698776e-05 1.559377267e-07 4.441871351e-05 )
( 2.344362292e-05 -5.549321713e-07 7.844791128e-08 1.649417754e-06 4.66428034e-08 3.076235953e-05 )
( 2.343438246e-05 -5.487383987e-07 6.185018719e-08 1.642090865e-06 4.033493539e-08 3.076587745e-05 )
( 2.342646621e-05 -5.443492341e-07 2.947662026e-08 1.636362867e-06 3.257688874e-08 3.072250183e-05 )
( 2.342759399e-05 -5.414126463e-07 4.742947723e-08 1.64208177e-06 3.663206982e-08 3.076207577e-05 )
( 2.041849802e-05 -3.629426146e-07 1.77740759e-07 9.520304616e-07 4.537745824e-08 2.655289427e-05 )
( 2.041858352e-05 -3.528295736e-07 1.486840517e-07 9.457287433e-07 4.380614982e-08 2.656512515e-05 )
( 2.039815445e-05 -3.846898551e-07 2.355047855e-07 9.658906492e-07 4.985027857e-08 2.648761074e-05 )
( 2.041594598e-05 -3.759285505e-07 2.070894567e-07 9.563873391e-07 4.732639525e-08 2.6528116e-05 )
( 2.61186251e-05 -9.297475003e-07 -5.521254209e-08 2.643888138e-06 1.326680543e-09 3.397758701e-05 )
( 2.618729195e-05 -9.529913427e-07 -4.662246411e-08 2.630797553e-06 -2.644308106e-10 3.398524859e-05 )
( 2.890136057e-05 -1.595694698e-06 -2.334055615e-09 4.224250006e-06 2.64425708e-08 3.669322905e-05 )
( 3.064233169e-05 -2.37047243e-06 -2.13479634e-09 6.506619684e-06 1.835265717e-09 3.890869993e-05 )
( 2.868723823e-05 -1.509400136e-06 -3.629810408e-08 4.056246325e-06 2.397262122e-08 3.657414709e-05 )
( 3.079289672e-05 -2.418890972e-06 4.820804378e-08 6.559193025e-06 1.63971059e-11 3.90307614e-05 )
( 2.844992923e-05 -1.460207045e-06 -8.003215157e-08 4.031469871e-06 1.38185543e-08 3.660150469e-05 )
( 2.856344872e-05 -1.489589181e-06 -6.226763816e-08 4.028325293e-06 2.178740388e-08 3.658238347e-05 )
( 3.149235272e-05 -3.538777719e-06 6.021537047e-07 1.001304918e-05 -4.46196502e-08 4.197009548e-05 )
( 3.142662172e-05 -3.52317079e-06 6.755038271e-07 9.991867955e-06 -8.033205745e-08 4.230763807e-05 )
( 2.918342943e-05 -3.943036063e-06 1.169197958e-06 1.361211616e-05 -1.727768932e-07 4.630341937e-05 )
( 2.667966328e-05 -4.026408533e-06 1.441039899e-06 1.699785025e-05 3.674156233e-07 4.751138476e-05 )
( 2.70807268e-05 -3.67804796e-06 1.291076728e-06 1.551168316e-05 2.381524382e-07 4.760871525e-05 )
( 2.767211117e-05 -4.130004982e-06 1.275996624e-06 1.604383579e-05 1.300367387e-07 4.69896404e-05 )
( 2.843124821e-05 -3.5306889e-06 1.190260377e-06 1.338689435e-05 1.129846883e-09 4.737127892e-05 )
( 3.006221232e-05 -3.724119324e-06 1.045935619e-06 1.181059451e-05 -2.749431758e-07 4.546003765e-05 )
( 3.023088539e-05 -3.760373602e-06 9.990324088e-07 1.171484473e-05 -2.854540924e-07 4.516378249e-05 )
( 3.070850653e-05 -3.952153747e-06 9.372784575e-07 1.189859995e-05 -2.650571105e-07 4.422860366e-05 )
( 3.053158071e-05 -3.897398074e-06 9.669390693e-07 1.186542431e-05 -2.760511393e-07 4.458515104e-05 )
( 3.117490996e-05 -3.475040103e-06 7.77914579e-07 9.999792383e-06 -1.643195162e-07 4.315673505e-05 )
( 3.129441029e-05 -3.505927452e-06 7.37214009e-07 1.005094691e-05 -1.222856412e-07 4.275039828e-05 )
( 3.153836587e-05 -2.854489367e-06 3.539090869e-07 7.628095318e-06 3.173608576e-08 4.073229502e-05 )
( 3.15899706e-05 -2.898623734e-06 3.329382139e-07 7.823623491e-06 4.169193701e-08 4.070125942e-05 )
( 3.150780685e-05 -2.855920684e-06 2.311981859e-07 7.783413821e-06 1.998988175e-08 4.02390724e-05 )
( 3.156037201e-05 -2.87382818e-06 2.740410139e-07 7.789958545e-06 3.265288484e-08 4.041697684e-05 )
( 3.104198913e-05 -2.464689032e-06 1.483401206e-07 6.605039744e-06 1.196191324e-08 3.93178052e-05 )
( 3.092616316e-05 -2.443848416e-06 1.001737644e-07 6.611154731e-06 1.532504346e-09 3.915914567e-05 )
( 2.635375495e-05 -9.97235702e-07 -2.553175982e-08 2.630374183e-06 1.260240445e-08 3.395951717e-05 )
( 2.62620506e-05 -9.706488981e-07 -3.901229917e-08 2.634769317e-06 4.778674789e-09 3.397484033e-05 )
( 2.35221396e-05 -5.794481126e-07 -2.77901302e-09 1.636608545e-06 1.78164079e-08 3.052072861e-05 )
( 2.348421185e-05 -5.615148666e-07 -6.800080499e-10 1.638913432e-06 2.176558489e-08 3.056038622e-05 )
( 2.345673056e-05 -5.533343597e-07 4.908119688e-09 1.634302407e-06 2.587172432e-08 3.061379539e-05 )
( 2.343499727e-05 -5.427372685e-07 1.622234791e-08 1.637707214e-06 2.880468486e-08 3.067823127e-05 )
( 3.144184666e-05 -8.983278349e-06 1.265203537e-06 2.387940731e-05 -5.748074017e-08 4.252018334e-05 )
( 2.815842345e-05 -6.127318557e-06 1.55882924e-06 2.051844422e-05 3.371813477e-07 4.554804036e-05 )
( 2.040462277e-05 -3.413783247e-07 1.230390581e-07 9.434960475e-07 3.958843564e-08 2.655502612e-05 )
( 2.038909952e-05 -3.356791467e-07 1.036127486e-07 9.385854014e-07 3.457021691e-08 2.654468517e-05 )
( 2.035794023e-05 -3.278941847e-07 7.524760548e-08 9.351394397e-07 2.798434551e-08 2.648237751e-05 )
( 2.037057857e-05 -3.300830258e-07 8.928464013e-08 9.382312101e-07 3.113600044e-08 2.652037256e-05 )
( 1.668961522e-05 -2.054624417e-07 1.866522155e-07 4.888678404e-07 3.278912786e-08 2.150678483e-05 )
( 1.668252116e-05 -1.987710476e-07 1.566745169e-07 4.85434839e-07 3.225861889e-08 2.150743057e-05 )
( 1.666750359e-05 -2.227263991e-07 2.414936944e-07 4.970249847e-07 3.530576009e-08 2.14587235e-05 )
( 1.668325967e-05 -2.156764936e-07 2.136914645e-07 4.915339673e-07 3.393464354e-08 2.148487147e-05 )
( 2.356978803e-05 -5.951413868e-07 -2.764642737e-09 1.636971888e-06 1.166025942e-08 3.050930354e-05 )
( 2.362551277e-05 -6.173212341e-07 -2.231415053e-11 1.629777103e-06 7.641980382e-09 3.051552085e-05 )
( 2.681827209e-05 -1.065912443e-06 4.031030798e-08 2.655084472e-06 3.772354518e-08 3.388824916e-05 )
( 2.905785732e-05 -1.638456979e-06 3.128189974e-08 4.333535799e-06 2.02923367e-08 3.674666004e-05 )
( 2.66897714e-05 -1.048315767e-06 1.993896603e-08 2.650891474e-06 3.572645113e-08 3.390127677e-05 )
( 2.9201492e-05 -1.651142384e-06 6.580653888e-08 4.309635642e-06 1.677896222e-08 3.679540168e-05 )
( 2.645782297e-05 -1.015399562e-06 -8.904562421e-09 2.641640094e-06 2.202121152e-08 3.393878796e-05 )
( 2.656996003e-05 -1.036753474e-06 3.752903766e-09 2.639216746e-06 3.162185536e-08 3.391993596e-05 )
( 3.151669807e-05 -2.851588306e-06 4.374543892e-07 7.651793567e-06 -6.036559697e-09 4.106298729e-05 )
( 3.148926407e-05 -2.873529411e-06 4.823733093e-07 7.687778634e-06 -3.890801992e-08 4.132546019e-05 )
( 2.976808537e-05 -3.544984111e-06 1.090482442e-06 1.167841765e-05 -2.209723959e-07 4.593849735e-05 )
( 2.943450272e-05 -3.416781283e-06 1.08429515e-06 1.167047412e-05 -1.678542532e-07 4.642684144e-05 )
( 2.622702959e-05 -2.94250458e-06 1.355263521e-06 1.469499148e-05 3.858046398e-07 4.873928265e-05 )
( 2.553753075e-05 -3.113607136e-06 1.560268629e-06 1.632167368e-05 5.313741553e-07 4.929849456e-05 )
( 2.571882214e-05 -2.385775815e-06 1.342890755e-06 1.421416619e-05 4.549997357e-07 4.964995605e-05 )
( 2.70255714e-05 -2.770969331e-06 1.236425419e-06 1.312294899e-05 2.701150379e-07 4.868024553e-05 )
( 2.782681986e-05 -3.248012717e-06 1.209949801e-06 1.341957977e-05 1.387267048e-07 4.793526023e-05 )
( 2.877170118e-05 -3.097194849e-06 1.105035835e-06 1.167916889e-05 -1.337578492e-08 4.742688179e-05 )
( 2.893825331e-05 -3.180726253e-06 1.094677145e-06 1.166143647e-05 -5.286104354e-08 4.717999036e-05 )
( 3.045082849e-05 -3.216276127e-06 9.30435931e-07 9.759227396e-06 -2.625447735e-07 4.499291754e-05 )
( 3.060131348e-05 -3.314201194e-06 8.876103266e-07 9.869409951e-06 -2.729544804e-07 4.459937554e-05 )
( 3.098316301e-05 -3.459821301e-06 8.236887084e-07 1.005768354e-05 -2.259548921e-07 4.365624045e-05 )
( 3.083804768e-05 -3.387147672e-06 8.497557928e-07 9.885788131e-06 -2.527428933e-07 4.407651795e-05 )
( 3.134227882e-05 -2.854387731e-06 5.868977269e-07 7.683467629e-06 -1.274214014e-07 4.21018085e-05 )
( 3.141997877e-05 -2.847983069e-06 5.484386065e-07 7.672704669e-06 -8.516941108e-08 4.17665251e-05 )
( 3.116237349e-05 -2.387672339e-06 2.663477119e-07 6.133998795e-06 3.662260895e-08 3.971683691e-05 )
( 3.120030669e-05 -2.465212219e-06 2.548706846e-07 6.469045275e-06 4.759151651e-08 3.974664287e-05 )
( 3.113537605e-05 -2.481816182e-06 1.923297788e-07 6.637309525e-06 2.669339949e-08 3.950308019e-05 )
( 3.12095799e-05 -2.503266842e-06 2.357682831e-07 6.632783879e-06 4.413730181e-08 3.970723628e-05 )
( 2.948405745e-05 -1.68727172e-06 1.280401847e-07 4.337693554e-06 1.574669639e-08 3.698095315e-05 )
( 2.934868644e-05 -1.676484317e-06 9.954216296e-08 4.373277079e-06 1.214188305e-08 3.687394565e-05 )
( 2.377685814e-05 -6.547629141e-07 1.711951647e-08 1.628349764e-06 1.425568019e-08 3.050467785e-05 )
( 2.369231152e-05 -6.31972398e-07 4.450052327e-09 1.629505164e-06 8.777715443e-09 3.051348176e-05 )
( 2.03394211e-05 -3.423433839e-07 3.034338292e-08 9.346160255e-07 1.922745341e-08 2.624411536e-05 )
( 2.033219425e-05 -3.305071345e-07 3.890831124e-08 9.358364537e-07 2.231389118e-08 2.629524897e-05 )