/*--------------------------------*- C++ -*----------------------------------*\
  =========                 |
  \\      /  F ield         | OpenFOAM: The Open Source CFD Toolbox
   \\    /   O peration     | Website:  https://openfoam.org
    \\  /    A nd           | Version:  8
     \\/     M anipulation  |
\*---------------------------------------------------------------------------*/






FoamFile
{
    version     2.0;
    format      ascii;
    class       volVectorField;
    location    "0";
    object      UDDES;
}
// * * * * * * * * * * * * * * * * * * * * * * * * * * * * * * * * * * * * * //

dimensions      [0 1 -1 0 0 0 0];


internalField   nonuniform List<vector> 
12992
(
( 0.0002529195626 -0.0003810117487 -0.0003987019008 )
( 0.0003271107562 -0.0002885822323 -0.0004059328639 )
( -0.0002081599232 -0.0003123880597 -0.0004165810242 )
( 0.0003925918136 -0.0001686780161 -0.0004109285073 )
( -0.0001299364085 -0.0002375895856 -0.0004098574864 )
( -0.0004478811752 -0.0002703258069 -0.0004211298074 )
( -0.0004901519278 -0.0002838846121 -0.0004216827801 )
( -6.829568883e-05 -0.0001269268105 -0.0003995074658 )
( 0.0004557909269 -3.310993634e-05 -0.0004032160505 )
( -0.0003981815826 -0.0002343073429 -0.0004148026928 )
( -0.0003671473823 -0.0002015365462 -0.000408135762 )
( -0.0008040583343 -0.0002065700683 -0.0004037859035 )
( -0.000861525652 -0.00021506341 -0.0004031641874 )
( -2.006154136e-05 3.284301783e-06 -0.0003775450459 )
( -0.0003071411047 -9.367079474e-05 -0.0003914687841 )
( -0.0003306312137 -0.0001402347843 -0.0003995519073 )
( 0.0005163656897 0.0001110595331 -0.0003651456209 )
( -0.0007546529523 -0.0001863602374 -0.0004000593326 )
( -0.0007102322998 -0.0001541147794 -0.0003936489811 )
( -0.0009983044583 -0.0001727446943 -0.0003832594084 )
( -0.0009786244482 -0.0001706753974 -0.0003831512877 )
( -0.001055576606 -0.0001760397572 -0.00038201391 )
( -0.001037742477 -0.0001757455175 -0.0003817651595 )
( -0.0002834157785 -2.130387111e-05 -0.000376449083 )
( 1.49370353e-05 0.0001389455865 -0.0003340615076 )
( -0.0002707361127 3.074981578e-05 -0.000361248618 )
( -0.0006582064088 -6.452344678e-05 -0.0003742889676 )
( -0.0006830830825 -0.0001113263716 -0.0003847650951 )
( 0.0005713591818 0.0002443199628 -0.0003045858466 )
( -0.0009476304986 -0.0001596832008 -0.0003803922446 )
( -0.000929842412 -0.000151747081 -0.0003790246265 )
( -0.0008851953316 -0.0001236901444 -0.0003746289585 )
( -0.0008981765714 -0.0001360634051 -0.0003757653758 )
( -0.001166683156 -0.000141212382 -0.0003546050866 )
( -0.001146377996 -0.0001299781143 -0.0003545198997 )
( -0.001218984136 -0.0001417657331 -0.0003553633578 )
( -0.001194987679 -0.0001347584766 -0.0003555198782 )
( -0.0006370395422 -1.384812549e-05 -0.000359272497 )
( -0.0002208800579 0.0001601693657 -0.0003130527621 )
( -0.0002572778612 0.0001085065742 -0.0003343581338 )
( 3.557475429e-05 0.0002617208811 -0.0002799377544 )
( -0.0006388968322 4.269133569e-05 -0.0003391117789 )
( -0.0008396451594 -4.490265928e-05 -0.0003559161269 )
( -0.000847305113 -5.996839536e-05 -0.0003593256988 )
( -0.0008677907172 -8.370454452e-05 -0.0003657483903 )
( -0.0008719485486 -9.857560508e-05 -0.0003700816014 )
( 0.001135639497 0.0001900190546 -0.0003299645032 )
( 0.0006245175027 0.0003427499032 -0.000247244694 )
( -0.001121861045 -0.0001300435979 -0.0003525047796 )
( -0.00110263424 -0.0001150653552 -0.0003508892842 )
( -0.001054805587 -9.323649283e-05 -0.000349563692 )
( -0.001069578575 -0.0001127445721 -0.0003499015584 )
( -0.001341371099 -0.0001070069775 -0.0003159279295 )
( -0.001321417163 -0.0001079969807 -0.000315403915 )
( -0.001394318184 -0.000105417661 -0.0003179256164 )
( -0.001373536652 -0.0001084874893 -0.0003162712092 )
( -0.0008297344903 -1.786541725e-05 -0.0003481448803 )
( -0.000828411663 4.881314908e-07 -0.0003398908302 )
( -0.0005723845097 0.0001512473827 -0.000288547395 )
( -0.0002191227686 0.000229415833 -0.0002798674686 )
( -0.0006045460468 9.71087502e-05 -0.0003156129387 )
( 4.588083539e-05 0.0003541256592 -0.0002378816862 )
( -0.0002245641081 0.0002713186259 -0.0002582066518 )
( -0.0008369500283 5.048283492e-05 -0.0003174916492 )
( -0.0008338194457 3.169927368e-05 -0.0003266680578 )
( -0.001009539468 -2.639398008e-05 -0.0003357456008 )
( -0.001015124028 -4.827293742e-05 -0.0003375734086 )
( -0.001034161076 -5.812209201e-05 -0.0003425512987 )
( -0.001042541233 -8.061678091e-05 -0.0003466747294 )
( 0.001219393336 0.0002927290916 -0.0002616150014 )
( 0.0006833352381 0.0003982353664 -0.0002122357255 )
( -0.001293730107 -9.995252185e-05 -0.0003146832751 )
( -0.001273589907 -9.653896996e-05 -0.0003152903519 )
( -0.001228378736 -7.940991054e-05 -0.000315237965 )
( -0.001245122636 -8.617088315e-05 -0.0003147817624 )
( -0.001465341076 -9.139390022e-05 -0.0002781763906 )
( -0.001443523564 -8.356471517e-05 -0.0002777486225 )
( -0.001518729609 -8.815227193e-05 -0.0002817466157 )
( -0.001496091485 -8.308967517e-05 -0.0002801577793 )
( -0.0009990516119 -1.314094879e-05 -0.0003311727778 )
( -0.000999668031 1.205893659e-05 -0.000323532091 )
( -0.0008251452236 0.0001421150373 -0.0002623848268 )
( -0.000816539512 0.0001261540747 -0.0002741675416 )
( -0.0005612607347 0.0002002688707 -0.0002599407453 )
( -0.0008409159491 8.019262168e-05 -0.0003016938863 )
( -0.0008416868513 9.679751383e-05 -0.0002911564079 )
( 0.00010403138 0.0004117066565 -0.0002153849491 )
( -0.0002446958388 0.0003567521926 -0.0002267384116 )
( -0.0002345823596 0.0003237074998 -0.0002358944912 )
( -0.000593568082 0.0002454750647 -0.0002333925804 )
( -0.001011632383 5.474619684e-05 -0.0003005570325 )
( -0.0009990332182 2.904293433e-05 -0.0003111334518 )
( -0.001181154046 -2.740441232e-05 -0.000308274175 )
( -0.001185951638 -3.685403863e-05 -0.0003092266852 )
( -0.001203671331 -5.330243221e-05 -0.0003126528172 )
( -0.001211808412 -6.233829481e-05 -0.0003143146751 )
( 0.001303958939 0.0003508801456 -0.0002142351004 )
( 0.000796392269 0.0004099383368 -0.0002013438789 )
( -0.001414252212 -8.740364137e-05 -0.0002780443756 )
( -0.001394085353 -7.530635776e-05 -0.0002795570181 )
( -0.001349886646 -6.078057049e-05 -0.0002807641285 )
( -0.001367073157 -7.531843585e-05 -0.0002801306255 )
( -0.001561518526 -6.904737529e-05 -0.0002389466972 )
( -0.001538190991 -6.516384747e-05 -0.0002377160272 )
( -0.001613107277 -6.63529645e-05 -0.0002441480174 )
( -0.001589380205 -6.438905984e-05 -0.0002412525646 )
( -0.001177563565 -8.537363101e-06 -0.0003046458587 )
( -0.001175303245 2.495361969e-06 -0.0002988611814 )
( -0.001051939907 0.0001340139133 -0.0002463113342 )
( -0.000846236886 0.0001697628322 -0.0002430341556 )
( -0.001034263405 0.000109995628 -0.0002596255799 )
( -0.0008582914015 0.000184681674 -0.0002321545908 )
( -0.00101754372 6.991752161e-05 -0.0002863649279 )
( -0.001030844869 9.472914098e-05 -0.0002746313403 )
( -0.0002501981799 0.0003943786724 -0.0002176567214 )
( 0.0001764477493 0.0004261043796 -0.0002067738969 )
( -0.0002974245872 0.0004122694954 -0.0002114818053 )
( -0.0006493096007 0.0003217943595 -0.0002049546747 )
( -0.0006211096188 0.0002858114894 -0.0002144662576 )
( -0.0009178505279 0.0002238413581 -0.0002057206148 )
( -0.0008972932701 0.0002080167033 -0.0002147940249 )
( -0.001181077561 3.505380664e-05 -0.0002804687829 )
( -0.001176640159 2.281121851e-05 -0.0002888437593 )
( -0.001302871504 -1.95617904e-05 -0.0002779966744 )
( -0.001307554543 -3.706593998e-05 -0.0002800853981 )
( -0.001321107498 -4.167197767e-05 -0.0002809790021 )
( -0.001329354709 -5.818775389e-05 -0.0002809279831 )
( 0.001383374329 0.0003717909858 -0.0001956547203 )
( 0.0008773252484 0.0003979891771 -0.0002047032176 )
( -0.001511423383 -6.647357804e-05 -0.0002382876846 )
( -0.001490110881 -5.952606807e-05 -0.0002389489673 )
( -0.00144795049 -4.880854976e-05 -0.0002404314728 )
( -0.001465740846 -5.801557927e-05 -0.0002399027289 )
( -0.001614912762 -4.931463263e-05 -0.0002027561713 )
( -0.001591842971 -4.75843226e-05 -0.0002013383637 )
( -0.001662943512 -4.706483742e-05 -0.0002093384246 )
( -0.001640300965 -4.703161176e-05 -0.0002058204409 )
( -0.001295585069 -1.455667552e-05 -0.0002754157176 )
( -0.001297873328 3.534146117e-06 -0.0002710489498 )
( -0.001230363734 0.0001022612923 -0.000231835118 )
( -0.001063129166 0.0001471496798 -0.0002296677994 )
( -0.00122437859 8.813431486e-05 -0.0002404822444 )
( -0.001089132391 0.0001682030706 -0.0002162240271 )
( -0.001197533915 5.578717901e-05 -0.0002659808379 )
( -0.001208718517 6.750083412e-05 -0.0002560484863 )
( -0.0007139430381 0.0003520028258 -0.0001990499441 )
( 0.0001797340956 0.0004045951355 -0.0002134859678 )
( -0.0002363814856 0.0004214914516 -0.0002045018482 )
( -0.0002483456337 0.0004223186988 -0.0002050652838 )
( -0.000799924368 0.0003755346115 -0.0001952494204 )
( -0.001003727899 0.0002905660076 -0.0001791071263 )
( -0.0009859403362 0.0002788006677 -0.0001804373605 )
( -0.0009427097393 0.0002477792732 -0.0001930205763 )
( -0.0009579293546 0.0002599075669 -0.0001873527508 )
( -0.001151111908 0.0002030076721 -0.0001906713733 )
( -0.00111719314 0.0001793836273 -0.0002021804103 )
( -0.001304760342 2.864529597e-05 -0.0002560444118 )
( -0.001295814174 9.994172615e-06 -0.0002641173487 )
( -0.001402512658 -1.778097794e-05 -0.0002408778819 )
( -0.001408120501 -2.965157546e-05 -0.0002414424089 )
( -0.001419713371 -3.466941416e-05 -0.0002411970345 )
( -0.00142959645 -4.568405348e-05 -0.0002410915477 )
( 0.001506608562 0.0003684020485 -0.0001853235299 )
( 0.001064797398 0.0003590773849 -0.0001854253642 )
( -0.001567081315 -4.76390851e-05 -0.0002007298172 )
( -0.001545522129 -4.379905295e-05 -0.0002011942852 )
( -0.001506394474 -3.688570359e-05 -0.0002026653383 )
( -0.001523741637 -4.210845509e-05 -0.0002016422368 )
( -0.001610235893 -3.429832941e-05 -0.0001726487535 )
( -0.001588745625 -3.339173782e-05 -0.0001704962779 )
( -0.001654081396 -3.245458356e-05 -0.0001799916063 )
( -0.001632992295 -3.285330968e-05 -0.0001755965786 )
( -0.001395980595 -1.266077652e-05 -0.0002396064519 )
( -0.001397239277 -1.075609362e-06 -0.0002373191674 )
( -0.001336399349 8.789732237e-05 -0.0002166635823 )
( -0.001253708731 0.0001189289833 -0.0002145243634 )
( -0.001333674183 6.691395538e-05 -0.0002258097229 )
( -0.001267999411 0.0001324610639 -0.0002031886543 )
( -0.001311411383 3.634898894e-05 -0.0002456666843 )
( -0.001329684397 5.543265434e-05 -0.0002350082796 )
( -0.001029563835 0.0003087659134 -0.0001767569629 )
( -0.001046031364 0.0003216115001 -0.0001777318976 )
( -0.0003041890741 0.0004076179757 -0.0002096417011 )
( 0.0002502621792 0.0003505012137 -0.0002034355275 )
( -0.0003087210935 0.0003906940983 -0.000212371815 )
( -0.0008900408284 0.0003933438275 -0.0001945376862 )
( -0.000865683658 0.0003894806723 -0.0001933571184 )
( -0.00113550236 0.0003454470716 -0.0001773287222 )
( -0.001117862412 0.0003351331397 -0.0001768173825 )
( -0.001255954616 0.0002620784799 -0.0001578562951 )
( -0.001225150656 0.0002436462819 -0.000161753298 )
( -0.001171840471 0.0002163388999 -0.0001790671813 )
( -0.001199705526 0.0002369433641 -0.0001688812918 )
( -0.001330109779 0.0001618917304 -0.0001759483275 )
( -0.001304882695 0.0001464258385 -0.0001866261882 )
( -0.001403916627 1.672816143e-05 -0.000226684584 )
( -0.001396716107 4.297345185e-06 -0.0002328891424 )
( -0.001460954431 -1.533509385e-05 -0.0002054344222 )
( -0.001467705704 -2.27538676e-05 -0.0002048176975 )
( -0.001477655489 -2.730561027e-05 -0.0002037019149 )
( -0.001489312504 -3.379865302e-05 -0.0002030343458 )
( 0.001813086215 0.0003527230001 -0.000143230689 )
( 0.00119370583 0.0002906041336 -0.0001287277119 )
( -0.001566159888 -3.306974031e-05 -0.0001695235987 )
( -0.001545913867 -3.083396223e-05 -0.0001692004444 )
( -0.001509939553 -2.643860535e-05 -0.0001704425085 )
( -0.001526059117 -2.964066698e-05 -0.0001698628766 )
( -0.001545561478 -2.310932723e-05 -0.0001453650621 )
( -0.001525960863 -2.247071279e-05 -0.0001434613077 )
( -0.001584393322 -2.158062125e-05 -0.0001530361624 )
( -0.001565229381 -2.203756958e-05 -0.0001489545102 )
( -0.001456220984 -1.100126883e-05 -0.000206387369 )
( -0.001455967198 -4.251493465e-06 -0.0002058729879 )
( -0.001454597339 6.008429773e-05 -0.0001932552841 )
( -0.001338208676 9.847540059e-05 -0.0002057443053 )
( -0.001443459769 4.269577403e-05 -0.0002016087965 )
( -0.001360777416 0.0001156278013 -0.000191898187 )
( -0.001411651727 2.273959217e-05 -0.0002192901593 )
( -0.00142756768 3.60876038e-05 -0.000211197912 )
( -0.001277823816 0.0002707036911 -0.0001577192306 )
( -0.001308543026 0.0002898512466 -0.0001591079345 )
( -0.0008948135073 0.0003840053105 -0.0001955038897 )
( 0.0001498242636 0.000222981238 -0.0001610511681 )
( -0.0003327841405 0.0003022578021 -0.0001977213251 )
( -0.0002852904145 0.0003494099074 -0.0002098144323 )
( -0.0009217737243 0.0003526314977 -0.0001968073339 )
( -0.001207361231 0.0003679522197 -0.000183903423 )
( -0.001214366523 0.0003676722117 -0.0001824492065 )
( -0.001164277783 0.0003583202488 -0.0001804200729 )
( -0.001180051826 0.0003640181385 -0.0001807844674 )
( -0.001372069935 0.0003154426522 -0.0001626762969 )
( -0.001337584341 0.0002967163164 -0.0001602627599 )
( -0.001480083098 0.0002101983409 -0.0001367775549 )
( -0.001429861644 0.0002027298033 -0.000143156125 )
( -0.001363771036 0.0001777739089 -0.0001617716043 )
( -0.001391138998 0.0001907641417 -0.0001527715358 )
( -0.001417607302 0.0001422919449 -0.0001642551651 )
( -0.001385271782 0.0001255616953 -0.0001778216392 )
( -0.001462355256 7.482503861e-06 -0.0001999872911 )
( -0.001456296421 2.851181762e-07 -0.0002035188518 )
( -0.001465531299 -1.231673923e-05 -0.0001756505517 )
( -0.001471483265 -1.711008008e-05 -0.0001737422135 )
( -0.001481606392 -2.02565825e-05 -0.0001721067238 )
( -0.001493248506 -2.435147871e-05 -0.0001714230166 )
( 0.002082075691 0.0003026676713 -4.871470082e-05 )
( 0.001190139446 0.0002042178385 -8.497464296e-05 )
( -0.001506354893 -2.229945676e-05 -0.0001420830667 )
( -0.001488031703 -2.089931513e-05 -0.0001418348256 )
( -0.001455424586 -1.811108268e-05 -0.0001425423106 )
( -0.001471018652 -2.009613854e-05 -0.0001416850137 )
( -0.001419558888 -1.422944115e-05 -0.0001201348859 )
( -0.001403257251 -1.394619539e-05 -0.0001181050684 )
( -0.001452603494 -1.314546807e-05 -0.0001272199734 )
( -0.001436481019 -1.3514069e-05 -0.0001232798531 )
( -0.001461331034 -9.400129784e-06 -0.0001777320722 )
( -0.001460117637 -5.112864528e-06 -0.0001785412605 )
( -0.001517108409 3.604634549e-05 -0.0001706138137 )
( -0.001469090115 6.449684588e-05 -0.0001810673566 )
( -0.001497671823 2.702612255e-05 -0.0001802605257 )
( -0.001498387312 8.151687507e-05 -0.0001679774432 )
( -0.001469710842 1.279583648e-05 -0.0001947900018 )
( -0.001482886029 2.088896508e-05 -0.0001882971701 )
( -0.001520486898 0.0002247866069 -0.0001347760699 )
( -0.001550772926 0.0002349173737 -0.0001360119204 )
( -0.001232274459 0.0003604168887 -0.000186196994 )
( -0.001245510764 0.0003553301212 -0.0001850597182 )
( -0.0004310637305 0.0002063247957 -0.000172659391 )
( 4.599532986e-05 3.487303184e-05 -0.0001235309901 )
( -0.0005271702539 0.0001201988343 -0.0001664516603 )
( -0.0008612231468 0.0002537472756 -0.0001880178752 )
( -0.0008697264711 0.0003138030006 -0.0001946041739 )
( -0.001257600961 0.0003314371861 -0.0001853851281 )
( -0.001257478027 0.0003379179398 -0.0001859013282 )
( -0.001501817605 0.0003366662131 -0.0001750327792 )
( -0.001472430653 0.0003322140547 -0.0001711949444 )
( -0.001398466178 0.0003209229617 -0.000166716738 )
( -0.001444053603 0.0003356719972 -0.0001689653 )
( -0.001628513448 0.0002577420091 -0.0001402687631 )
( -0.001596028567 0.0002488431637 -0.0001378949528 )
( -0.001609943458 0.0001814780117 -0.0001188456808 )
( -0.001539567718 0.0001701450819 -0.0001284486789 )
( -0.001448513824 0.0001510941074 -0.0001515895419 )
( -0.001486188732 0.0001673665392 -0.0001400161273 )
( -0.001556893112 0.0001017601535 -0.0001411196863 )
( -0.001522214618 8.566146425e-05 -0.0001544739498 )
( -0.001465684734 3.055616162e-06 -0.0001759315201 )
( -0.00146103208 -1.925211336e-06 -0.0001780634775 )
( -0.001413257443 -9.689644685e-06 -0.0001482595253 )
( -0.001419486012 -1.262817932e-05 -0.0001458490588 )
( -0.001428834395 -1.442225857e-05 -0.000144164529 )
( -0.001440904336 -1.69018731e-05 -0.0001432727586 )
( 0.001875901362 0.0002117126132 1.802499537e-05 )
( 0.002501698444 0.0003062934557 5.970905477e-05 )
( 0.0009723441908 7.869012916e-05 -4.128227738e-05 )
( -0.001386502292 -1.389243971e-05 -0.0001170558899 )
( -0.001371191931 -1.311711276e-05 -0.0001165285066 )
( -0.001342921518 -1.132256421e-05 -0.000116091549 )
( -0.001356277498 -1.259338569e-05 -0.0001159739331 )
( -0.001235348405 -7.368019851e-06 -9.504967602e-05 )
( -0.001221628394 -7.17569219e-06 -9.366683662e-05 )
( -0.001261649653 -6.573946848e-06 -0.0001008658946 )
( -0.001248527435 -6.81167694e-06 -9.801000851e-05 )
( -0.001409382559 -7.921268661e-06 -0.0001510074799 )
( -0.001407726551 -5.106856861e-06 -0.0001528088178 )
( -0.001512208139 2.382573075e-05 -0.0001503866952 )
( -0.00153744407 4.298326166e-05 -0.0001594860514 )
( -0.001495785778 1.722591333e-05 -0.0001591725013 )
( -0.001562287332 5.257168959e-05 -0.00014753906 )
( -0.001472338685 6.852595106e-06 -0.0001721029548 )
( -0.001482898486 1.25137276e-05 -0.0001664163719 )
( -0.001669588615 0.0001836146839 -0.000113453716 )
( -0.001717348932 0.0001997551881 -0.0001137950894 )
( -0.001518729609 0.0003247520071 -0.0001747161441 )
( -0.001566420426 0.0003228186397 -0.00017349681 )
( -0.0009074038826 0.0001670109341 -0.0001784788474 )
( -0.0002067283058 -0.0001192097116 -0.0001117015418 )
( -0.0007689478807 -0.0001271165092 -0.0001476088946 )
( 0.0003571089474 3.373145773e-06 -8.479877579e-05 )
( -0.0005980883725 -2.949877853e-06 -0.0001588893938 )
( -0.0009370342013 6.685340486e-05 -0.0001711595105 )
( -0.001249340014 0.0002216383145 -0.0001826576045 )
( -0.001247949433 0.0002409730223 -0.0001842444326 )
( -0.001253190683 0.0002950175549 -0.0001839953329 )
( -0.001249057939 0.0002793260501 -0.0001841279445 )
( -0.00161108654 0.0002888451563 -0.0001707868942 )
( -0.001587887644 0.0003015084949 -0.0001709452481 )
( -0.001768693328 0.0002842367103 -0.0001555137715 )
( -0.001754439436 0.0002843659313 -0.0001528253051 )
( -0.001668973244 0.0002731132554 -0.0001471498108 )
( -0.001702171867 0.0002778126218 -0.0001490335999 )
( -0.001804710249 0.0002197909344 -0.0001189160976 )
( -0.001757500693 0.0002031783806 -0.0001152244949 )
( -0.001730203279 0.000133727619 -9.60038451e-05 )
( -0.001664874959 0.0001222319261 -0.0001057842601 )
( -0.001588041661 0.0001040447969 -0.0001279005519 )
( -0.00162881054 0.0001195872173 -0.00011576205 )
( -0.001619921066 6.719544035e-05 -0.0001227052562 )
( -0.001588509302 5.929140389e-05 -0.0001351632818 )
( -0.001411523437 5.907180594e-07 -0.0001520072401 )
( -0.001407829346 -2.861024313e-06 -0.0001531204907 )
( -0.00130435219 -6.960067822e-06 -0.0001217592653 )
( -0.001310545835 -8.522426469e-06 -0.0001193153148 )
( -0.001319301082 -9.368149222e-06 -0.0001177678714 )
( -0.00132994703 -1.067076482e-05 -0.0001169608659 )
( 0.001677192282 0.0001100830996 5.923380741e-05 )
( 0.002460616175 0.0002673123963 0.000105817373 )
( 0.0006833852385 -0.0001312973036 -9.815415069e-06 )
( 0.0002618035942 -8.393231838e-05 -7.63521748e-05 )
( -0.001208446105 -7.300349353e-06 -9.306277207e-05 )
( -0.001195639139 -6.805190424e-06 -9.259462968e-05 )
( -0.00117317657 -5.851354672e-06 -9.099471936e-05 )
( -0.001183792949 -6.556688277e-06 -9.142455383e-05 )
( -0.001000343473 -2.837676448e-06 -7.061634096e-05 )
( -0.0009902231395 -2.813677838e-06 -6.947279326e-05 )
( -0.001019710908 -2.349819852e-06 -7.501614891e-05 )
( -0.001010273234 -2.495229637e-06 -7.266859029e-05 )
( -0.001300335862 -5.922531273e-06 -0.0001246998436 )
( -0.001297653769 -4.171904038e-06 -0.0001265932806 )
( -0.001450678334 1.545707346e-05 -0.0001292048983 )
( -0.001530798967 2.939623846e-05 -0.0001403787755 )
( -0.00143644237 1.074294232e-05 -0.0001371336548 )
( -0.001553270034 3.638819544e-05 -0.0001293544919 )
( -0.001417056425 3.33020057e-06 -0.0001488970011 )
( -0.001425930299 7.237354112e-06 -0.0001437673345 )
( -0.001773374388 0.0001397087181 -9.269038856e-05 )
( -0.001821205136 0.0001533516333 -9.188717377e-05 )
( -0.001811868977 0.0002791350416 -0.0001572816109 )
( -0.001843146747 0.0002734686714 -0.0001548425353 )
( -0.001249106601 0.0001531648304 -0.0001796715223 )
( -0.001268687891 0.0001109358273 -0.0001760232699 )
( -0.0009379343828 -0.0002824860276 -0.000130579574 )
( -0.0003341275733 -0.0002307827817 -9.845678869e-05 )
( -0.001348949503 -0.0002344741952 -0.000152684137 )
( -0.001071520615 -7.021172496e-05 -0.000166755548 )
( -0.001322956057 9.833865988e-07 -0.0001686012401 )
( -0.001307481667 3.848237247e-05 -0.000170772546 )
( -0.001656933804 0.000155216374 -0.0001777184225 )
( -0.001637899899 0.0001994544436 -0.0001762709144 )
( -0.001616686815 0.0002621345047 -0.0001709800854 )
( -0.001631265972 0.0002312287397 -0.0001729493961 )
( -0.001897247392 0.0002421088866 -0.0001541271195 )
( -0.001878009643 0.0002581253648 -0.0001539843215 )
( -0.001972642262 0.0002419644734 -0.0001338345319 )
( -0.001928998157 0.0002340987267 -0.0001309742365 )
( -0.001844124869 0.0002222982002 -0.0001234247175 )
( -0.001890859334 0.0002362758969 -0.0001276867988 )
( -0.001915397705 0.0001731571829 -9.537259757e-05 )
( -0.001866095234 0.0001600399701 -9.259388753e-05 )
( -0.001774445642 9.336043149e-05 -8.135460666e-05 )
( -0.001730041695 8.426048589e-05 -8.854025509e-05 )
( -0.001652645878 7.16672439e-05 -0.0001103812465 )
( -0.001690495992 7.871618436e-05 -9.860998398e-05 )
( -0.001607226557 4.678154801e-05 -0.0001067695484 )
( -0.001578093972 4.147606887e-05 -0.0001180912004 )
( -0.001299368916 -3.5998778e-07 -0.0001267512416 )
( -0.001297269715 -2.654131322e-06 -0.0001274750393 )
( -0.001140626729 -3.863906841e-06 -9.545800276e-05 )
( -0.001146655413 -4.643999091e-06 -9.332125774e-05 )
( -0.001154308207 -4.941547559e-06 -9.206340474e-05 )
( -0.001162821776 -5.538837286e-06 -9.160648187e-05 )
( -0.0001619680552 -0.0003955673892 -3.740474131e-05 )
( 5.719136607e-05 -0.0002526894968 -5.581945152e-05 )
( -0.0009801289998 -2.890703627e-06 -6.918692088e-05 )
( -0.0009705486009 -2.672122491e-06 -6.889551878e-05 )
( -0.0009535003919 -2.197956519e-06 -6.729342567e-05 )
( -0.000961577578 -2.582933575e-06 -6.760576798e-05 )
( -0.0007297613774 -6.671187407e-07 -4.741338489e-05 )
( -0.0007227468304 -6.52720928e-07 -4.68818871e-05 )
( -0.0007422906929 -4.006802214e-07 -5.060870899e-05 )
( -0.000736088783 -4.684303008e-07 -4.908014671e-05 )
( -0.001135895844 -3.387042625e-06 -9.789598698e-05 )
( -0.001132807694 -2.316975269e-06 -9.983866039e-05 )
( -0.001330928528 9.89902037e-06 -0.000106616877 )
( -0.001467326074 1.958000394e-05 -0.0001200938495 )
( -0.00131934206 6.644533187e-06 -0.0001136892097 )
( -0.001487689558 2.442630284e-05 -0.0001101062953 )
( -0.00130371144 1.554105438e-06 -0.0001241168648 )
( -0.001310611493 4.213829925e-06 -0.0001196417725 )
( -0.001819368801 0.0001007143946 -7.70365732e-05 )
( -0.001868076506 0.0001111692109 -7.499862841e-05 )
( -0.002006935189 0.0002325808164 -0.0001351277751 )
( -0.002047346905 0.0002319810301 -0.000134651491 )
( -0.001665144227 0.0001077446941 -0.0001766355999 )
( -0.001687540323 4.720536162e-05 -0.0001757088612 )
( -0.001471542753 -0.0004089552967 -0.0001294846152 )
( -0.000969518791 -0.0003865260514 -0.0001135889106 )
( -0.0004655196681 -0.0003830468922 -7.512400771e-05 )
( -0.001784848631 -0.0003473703691 -0.0001480579958 )
( -0.001696099876 -0.0002731566201 -0.000155497677 )
( -0.00136017811 -8.924896247e-05 -0.0001664151641 )
( -0.001443705289 -0.0001559449593 -0.0001645511074 )
( -0.00175449485 -7.623674173e-05 -0.0001675038802 )
( -0.001720546279 -1.664420051e-05 -0.0001708270865 )
( -0.001975555439 0.0001100983136 -0.0001686388277 )
( -0.001961279893 0.0001483798405 -0.0001645303855 )
( -0.001922820462 0.0002134865354 -0.0001559878292 )
( -0.001938725356 0.0001884727535 -0.0001591621258 )
( -0.002112852409 0.0002029235911 -0.0001339405571 )
( -0.002078268677 0.0002134099195 -0.0001340880699 )
( -0.002107288921 0.000197795147 -0.0001119393055 )
( -0.002058932092 0.0001929762366 -0.000108460692 )
( -0.001961197471 0.000179894254 -0.0001002001591 )
( -0.002012318932 0.0001905005047 -0.000104626437 )
( -0.001969292993 0.0001295597176 -7.621808618e-05 )
( -0.001916830079 0.0001191795382 -7.462382928e-05 )
( -0.001753723249 6.480591401e-05 -6.942216714e-05 )
( -0.001711306744 5.807349226e-05 -7.628178719e-05 )
( -0.001638252288 4.974524199e-05 -9.57512384e-05 )
( -0.001673197141 5.406436321e-05 -8.538648399e-05 )
( -0.001537059201 3.150086559e-05 -8.994607197e-05 )
( -0.001510612899 2.801996379e-05 -9.99287804e-05 )
( -0.001131973695 -6.203507041e-09 -0.0001002282588 )
( -0.001131263329 -1.471831183e-06 -0.0001007307583 )
( -0.000927949266 -1.478008016e-06 -6.991178088e-05 )
( -0.0009335300419 -1.792652938e-06 -6.852451043e-05 )
( -0.0009393915534 -1.847777639e-06 -6.757052324e-05 )
( -0.000946217915 -2.098923233e-06 -6.72127353e-05 )
( -0.000578323612 -0.0005255817669 -4.46092381e-05 )
( -0.0003120182955 -0.0005587192718 -1.410614277e-05 )
( -0.0007160961395 -7.559527262e-07 -4.657830505e-05 )
( -0.0007095199544 -6.667482921e-07 -4.6573492e-05 )
( -0.0006980261533 -4.874548267e-07 -4.535389598e-05 )
( -0.0007033720613 -6.538044204e-07 -4.592837649e-05 )
( -0.0004415626463 4.676159904e-08 -2.677327211e-05 )
( -0.0004378303711 4.924782715e-08 -2.621173735e-05 )
( -0.0004483773664 1.480505176e-07 -2.856871288e-05 )
( -0.0004450883716 1.35893572e-07 -2.752350338e-05 )
( -0.0009234604659 -1.279263756e-06 -7.191733312e-05 )
( -0.0009197875625 -7.665629482e-07 -7.344671758e-05 )
( -0.001155952108 6.601804216e-06 -8.339370834e-05 )
( -0.001345840516 1.269328095e-05 -9.845869499e-05 )
( -0.001146407216 4.552350674e-06 -8.943244029e-05 )
( -0.001363819116 1.588336454e-05 -8.968511975e-05 )
( -0.001135061029 1.215274779e-06 -9.822358697e-05 )
( -0.001139873057 2.974426479e-06 -9.441810835e-05 )
( -0.001798777608 7.108766295e-05 -6.483594188e-05 )
( -0.001847355277 7.938197086e-05 -6.219984061e-05 )
( -0.002150918124 0.0001926099649 -0.0001139316591 )
( -0.002196144778 0.0001891513384 -0.0001144430644 )
( -0.001996712061 5.034129208e-05 -0.0001702120207 )
( -0.002012603218 1.188784154e-06 -0.0001690257195 )
( -0.001848479966 -0.0004476687172 -0.000136915507 )
( -0.001892635715 -0.0005249313544 -0.0001281236182 )
( -0.001563676517 -0.0005116016255 -0.0001159311942 )
( -0.001260287361 -0.0004328150244 -0.000115990988 )
( -0.001160647138 -0.0005954033113 -8.453751798e-05 )
( -0.001220869599 -0.0004718059499 -0.0001078061105 )
( -0.002101139398 -0.0004131860624 -0.0001422553032 )
( -0.002003799658 -0.0003364697041 -0.0001510049187 )
( -0.001772734453 -0.0001534837647 -0.0001635047811 )
( -0.001871484914 -0.0002341352665 -0.0001580669632 )
( -0.002065830166 -0.0001318000723 -0.0001634731307 )
( -0.002042932669 -7.064364036e-05 -0.000166563259 )
( -0.002210584469 7.540187653e-05 -0.000152412249 )
( -0.002187950071 0.0001123913898 -0.0001463172666 )
( -0.002137174364 0.000173876062 -0.0001358485024 )
( -0.002167509869 0.0001521530503 -0.000140054035 )
( -0.002274303464 0.0001636101078 -0.0001143418485 )
( -0.002236148808 0.0001755518024 -0.00011410359 )
( -0.002185491845 0.0001542070531 -9.124745702e-05 )
( -0.002130869078 0.0001503705571 -8.760362107e-05 )
( -0.002021323424 0.000136915216 -8.002830145e-05 )
( -0.002076860052 0.0001460615895 -8.401735249e-05 )
( -0.001952801133 9.445467003e-05 -6.126944936e-05 )
( -0.001898496179 8.633868129e-05 -6.07667389e-05 )
( -0.00166985346 4.304996037e-05 -5.851831884e-05 )
( -0.001631130814 3.838803241e-05 -6.431122165e-05 )
( -0.001565253478 3.32616255e-05 -8.044777496e-05 )
( -0.001596585382 3.580931298e-05 -7.176474173e-05 )
( -0.001407539356 2.044946996e-05 -7.24599231e-05 )
( -0.00138436514 1.823872662e-05 -8.089932817e-05 )
( -0.0009171849233 4.864866696e-07 -7.398483285e-05 )
( -0.0009176536696 -3.059531934e-07 -7.414050924e-05 )
( -0.0006792937638 -2.677118687e-07 -4.663714208e-05 )
( -0.0006835383829 -4.007008556e-07 -4.564319897e-05 )
( -0.0006881194422 -3.682127385e-07 -4.508030179e-05 )
( -0.0006929004448 -4.466939458e-07 -4.517185153e-05 )
( -0.0007824769709 -0.0007062926888 -2.24937321e-05 )
( -0.00132429169 -0.0007639297401 -5.617814531e-05 )
( -0.0004340407613 -1.184297105e-08 -2.61933219e-05 )
( -0.0004301977751 1.928695781e-08 -2.62027479e-05 )
( -0.000423499645 7.741025598e-08 -2.579769352e-05 )
( -0.0004267869808 -9.219530028e-09 -2.598229912e-05 )
( -0.000218594636 2.38832115e-07 -1.238942423e-05 )
( -0.0002168484352 2.348930224e-07 -1.227159373e-05 )
( -0.0002216048306 2.781367527e-07 -1.328647977e-05 )
( -0.0002200360177 2.733836766e-07 -1.29166483e-05 )
( -0.0006755801151 -2.281330751e-07 -4.793355401e-05 )
( -0.0006724671111 -7.708035099e-09 -4.899523992e-05 )
( -0.0009340937249 4.347764389e-06 -6.104566273e-05 )
( -0.001168453018 8.344298294e-06 -7.654373621e-05 )
( -0.0009268993745 3.199137609e-06 -6.577048771e-05 )
( -0.001183706685 1.025818528e-05 -6.917201972e-05 )
( -0.0009188656113 1.237632887e-06 -7.251174247e-05 )
( -0.0009220218053 2.285231631e-06 -6.967726949e-05 )
( -0.001711986377 4.786101636e-05 -5.439510278e-05 )
( -0.001758172992 5.406595301e-05 -5.163799142e-05 )
( -0.002236729488 0.0001521537197 -9.411427163e-05 )
( -0.00228729751 0.0001496077311 -9.529430827e-05 )
( -0.002224630676 2.004633825e-05 -0.0001553476031 )
( -0.002245655051 -3.060809831e-05 -0.0001555544004 )
( -0.002125489991 -0.0005057256203 -0.000132762696 )
( -0.001957539469 -0.0006236302434 -0.0001161423497 )
( -0.002158849733 -0.0005851810565 -0.0001240428101 )
( -0.00162787817 -0.0005875753122 -0.0001067593621 )
( -0.00139255065 -0.0006374176592 -9.150699771e-05 )
( -0.001585252467 -0.0007731856313 -8.116792742e-05 )
( -0.002306651557 -0.0004621815751 -0.0001338435832 )
( -0.002247261349 -0.0003709208395 -0.0001434051082 )