/*--------------------------------*- C++ -*----------------------------------*\
  =========                 |
  \\      /  F ield         | OpenFOAM: The Open Source CFD Toolbox
   \\    /   O peration     | Website:  https://openfoam.org
    \\  /    A nd           | Version:  8
     \\/     M anipulation  |
\*---------------------------------------------------------------------------*/






FoamFile
{
    version     2.0;
    format      ascii;
    class       volScalarField;
    location    "0";
    object      pDDES;
}
// * * * * * * * * * * * * * * * * * * * * * * * * * * * * * * * * * * * * * //

dimensions      [0 2 -2 0 0 0 0];


internalField   nonuniform List<scalar> 
12225
(
-7.125322736e-05
-6.866467447e-05
-6.66755659e-05
-6.723856495e-05
-6.413399387e-05
-6.018557906e-05
-6.437465345e-05
-6.272869359e-05
-5.775300815e-05
-5.587625492e-05
-6.117922021e-05
-5.787809641e-05
-5.834690819e-05
-5.358824637e-05
-5.167485142e-05
-5.743625297e-05
-5.679807145e-05
-5.555837561e-05
-5.222626351e-05
-4.949840513e-05
-4.753962276e-05
-5.534353477e-05
-5.310634879e-05
-5.318465264e-05
-5.243022679e-05
-5.133276136e-05
-4.816369619e-05
-4.537180939e-05
-4.338155122e-05
-5.080734991e-05
-4.875385275e-05
-4.886167517e-05
-5.102778232e-05
-4.865192022e-05
-4.814653221e-05
-4.534908658e-05
-4.405477011e-05
-4.116807031e-05
-3.926008139e-05
-4.802595504e-05
-4.796128633e-05
-4.669841655e-05
-4.249429549e-05
-4.454147711e-05
-4.43777717e-05
-4.651206837e-05
-4.582288238e-05
-4.588746015e-05
-4.209528561e-05
-4.127280044e-05
-3.986917e-05
-3.702524555e-05
-3.53223586e-05
-4.644748697e-05
-4.548083962e-05
-4.224880831e-05
-3.838517296e-05
-4.032750439e-05
-4.241904026e-05
-4.01321231e-05
-4.15931936e-05
-4.165637802e-05
-4.376529614e-05
-4.370224633e-05
-4.334266123e-05
-4.430704575e-05
-3.806914174e-05
-3.716355423e-05
-3.572696733e-05
-3.310411194e-05
-3.163806468e-05
-4.420131881e-05
-4.329882358e-05
-3.952740371e-05
-3.94644303e-05
-3.826895409e-05
-3.624116289e-05
-3.623514567e-05
-3.598436888e-05
-3.804227526e-05
-3.735219434e-05
-3.741455657e-05
-3.913890032e-05
-4.010405246e-05
-4.217037349e-05
-4.12431109e-05
-4.115813499e-05
-4.207119491e-05
-3.404909512e-05
-3.30722105e-05
-3.182038563e-05
-2.946963286e-05
-2.81329485e-05
-4.279787026e-05
-4.171950422e-05
-3.797424506e-05
-3.70051348e-05
-3.394679152e-05
-3.047218706e-05
-3.225595356e-05
-3.422963346e-05
-3.191792348e-05
-3.325641228e-05
-3.331777407e-05
-3.535244468e-05
-3.529026799e-05
-3.492279939e-05
-3.585761806e-05
-3.696247586e-05
-3.782825661e-05
-3.992771599e-05
-3.905841004e-05
-3.958208617e-05
-4.062191874e-05
-3.004513746e-05
-2.918523569e-05
-2.819161273e-05
-2.602626955e-05
-2.46568743e-05
-4.20757824e-05
-4.099091529e-05
-3.571938942e-05
-3.486036439e-05
-3.127926539e-05
-3.121845657e-05
-3.029799336e-05
-2.654903801e-05
-2.835657506e-05
-2.792471787e-05
-2.990337453e-05
-2.916415178e-05
-2.922470958e-05
-3.084886703e-05
-3.176016617e-05
-3.379525151e-05
-3.288047083e-05
-3.276659118e-05
-3.362676216e-05
-3.536526856e-05
-3.63971194e-05
-3.849586938e-05
-3.746132279e-05
-3.883428144e-05
-3.990066762e-05
-2.61656096e-05
-2.551447687e-05
-2.475310066e-05
-2.258789755e-05
-2.110670721e-05
-4.070805517e-05
-3.961171751e-05
-3.430054494e-05
-3.327072045e-05
-2.972770744e-05
-2.879719432e-05
-2.596821287e-05
-2.270480582e-05
-2.445643258e-05
-2.641135325e-05
-2.403863982e-05
-2.516200038e-05
-2.522080104e-05
-2.720025077e-05
-2.714011134e-05
-2.673833296e-05
-2.766638136e-05
-2.866135583e-05
-2.952837895e-05
-3.156956518e-05
-3.069255763e-05
-3.11890617e-05
-3.221600127e-05
-3.462226596e-05
-3.566468877e-05
-3.776840094e-05
-3.671911691e-05
-3.744832065e-05
-3.85202402e-05
-2.248423152e-05
-2.203799704e-05
-2.132719965e-05
-1.903978773e-05
-1.746838461e-05
-3.925266719e-05
-3.81527243e-05
-3.357102105e-05
-3.253035175e-05
-2.747772669e-05
-2.662885527e-05
-2.324910747e-05
-2.319102714e-05
-2.252846025e-05
-1.902316399e-05
-2.06258901e-05
-2.017747101e-05
-2.211176616e-05
-2.127418702e-05
-2.133180897e-05
-2.273082464e-05
-2.362212945e-05
-2.562526424e-05
-2.470653817e-05
-2.457614755e-05
-2.541719732e-05
-2.709114415e-05
-2.809370744e-05
-3.01404034e-05
-2.91310389e-05
-3.045194899e-05
-3.148388714e-05
-3.3231212e-05
-3.427460979e-05
-3.637977352e-05
-3.53282594e-05
-3.598454714e-05
-3.705932249e-05
-1.896130743e-05
-1.860540033e-05
-1.778915066e-05
-1.534123112e-05
-1.554304981e-05
-3.730549724e-05
-3.620408461e-05
-3.2183023e-05
-3.114300489e-05
-2.605467853e-05
-2.504758231e-05
-2.165222031e-05
-2.077243698e-05
-1.823510502e-05
-1.547229112e-05
-1.694546518e-05
-1.876705937e-05
-1.63150944e-05
-1.740089283e-05
-1.745896589e-05
-1.942080962e-05
-1.936322224e-05
-1.886986502e-05
-1.973438157e-05
-2.055120422e-05
-2.136944568e-05
-2.338414924e-05
-2.253432467e-05
-2.299941661e-05
-2.400749509e-05
-2.635318924e-05
-2.736196984e-05
-2.941589264e-05
-2.839451918e-05
-2.90619173e-05
-3.009832108e-05
-3.176193422e-05
-3.280663077e-05
-3.491583266e-05
-3.386068784e-05
-3.403611481e-05
-3.511259638e-05
-1.548464388e-05
-1.50698952e-05
-1.58268831e-05
-1.335708839e-05
-3.675735934e-05
-3.565433144e-05
-3.071448737e-05
-2.967350702e-05
-2.532811413e-05
-2.430865607e-05
-1.939453796e-05
-1.859744953e-05
-1.551375863e-05
-1.545594932e-05
-1.515972963e-05
-1.191849879e-05
-1.338561651e-05
-1.260267436e-05
-1.444149439e-05
-1.354022334e-05
-1.359677572e-05
-1.496728146e-05
-1.586654616e-05
-1.783263542e-05
-1.694834828e-05
-1.66780228e-05
-1.747989336e-05
-1.89647144e-05
-1.994398917e-05
-2.196391142e-05
-2.096473509e-05
-2.22589606e-05
-2.327890797e-05
-2.495840818e-05
-2.597411913e-05
-2.803128154e-05
-2.700213008e-05
-2.758947994e-05
-2.862589099e-05
-2.978638622e-05
-3.083847332e-05
-3.296508658e-05
-3.190001007e-05
-3.348678001e-05
-3.456347986e-05
-1.193745629e-05
-1.142939982e-05
-1.210144819e-05
-3.643037417e-05
-3.53283649e-05
-2.873770791e-05
-2.769439561e-05
-2.393987961e-05
-2.291908095e-05
-1.796655852e-05
-1.700585744e-05
-1.390425678e-05
-1.30286362e-05
-1.079461163e-05
-1.000095926e-05
-9.804568435e-06
-1.16108713e-05
-9.00320174e-06
-9.794647667e-06
-9.849380149e-06
-1.170021915e-05
-1.164464084e-05
-1.111372421e-05
-1.19881006e-05
-1.27876956e-05
-1.359376529e-05
-1.555994277e-05
-1.475419958e-05
-1.508189052e-05
-1.603313467e-05
-1.821910155e-05
-1.921178045e-05
-2.123176455e-05
-2.022344597e-05
-2.086764107e-05
-2.189045335e-05
-2.349416354e-05
-2.45073843e-05
-2.655732169e-05
-2.55390114e-05
-2.56138228e-05
-2.665091961e-05
-2.922995373e-05
-3.028471474e-05
-3.241366358e-05
-3.134804865e-05
-3.315743379e-05
-3.423568705e-05
-9.999981557e-06
-9.44585554e-06
-3.626534453e-05
-3.516091965e-05
-2.817933819e-05
-2.713454342e-05
-2.246823533e-05
-2.144689097e-05
-1.723052446e-05
-1.62598426e-05
-1.16373576e-05
-1.084493488e-05
-8.031666766e-06
-7.977650057e-06
-7.996647582e-06
-6.359556664e-06
-6.160837074e-06
-5.390697879e-06
-7.207722774e-06
-6.193519312e-06
-6.247205874e-06
-7.364873909e-06
-8.19930483e-06
-1.008715662e-05
-9.214353668e-06
-8.939789041e-06
-9.714809494e-06
-1.119511398e-05
-1.215985503e-05
-1.411162884e-05
-1.315394729e-05
-1.433513717e-05
-1.528750545e-05
-1.682086804e-05
-1.781790706e-05
-1.984137452e-05
-1.88301492e-05
-1.939412687e-05
-2.041817243e-05
-2.151042281e-05
-2.253179082e-05
-2.458040217e-05
-2.355511788e-05
-2.505271368e-05
-2.609083458e-05
-2.889807001e-05
-2.995456816e-05
-3.208441558e-05
-3.101830953e-05
-3.298809679e-05
-3.406755059e-05
-6.328505151e-06
-3.619533163e-05
-3.50924347e-05
-2.784558092e-05
-2.679933095e-05
-2.048363785e-05
-1.945922304e-05
-1.582855111e-05
-1.485450775e-05
-1.020424861e-05
-9.252574273e-06
-6.37294761e-06
-5.556509223e-06
-3.561689482e-06
-2.672703658e-06
-2.462702469e-06
-4.313880709e-06
-1.715399094e-06
-2.556852451e-06
-2.61142668e-06
-4.437477401e-06
-4.383668056e-06
-3.772632908e-06
-4.586828709e-06
-5.184895144e-06
-5.944308668e-06
-7.824181012e-06
-7.045589882e-06
-7.340313005e-06
-8.281246664e-06
-1.045239151e-05
-1.142366455e-05
-1.3373211e-05
-1.240968049e-05
-1.292289835e-05
-1.388296823e-05
-1.534267903e-05
-1.634398177e-05
-1.836883166e-05
-1.73546141e-05
-1.740737571e-05
-1.843180326e-05
-2.094571209e-05
-2.196698915e-05
-2.401878737e-05
-2.299210246e-05
-2.471639709e-05
-2.575511826e-05
-2.872889308e-05
-2.978600969e-05
-3.191503492e-05
-3.084876153e-05
-3.291861867e-05
-3.399854904e-05
-3.617255788e-05
-3.507063593e-05
-2.767409023e-05
-2.662810948e-05
-1.992099169e-05
-1.889761188e-05
-1.434664318e-05
-1.336836522e-05
-9.474320905e-06
-8.513503417e-06
-4.118360721e-06
-3.3638471e-06
-8.021081044e-07
-7.470058563e-07
-6.256775578e-07
1.185086035e-06
1.965034244e-06
1.292619629e-07
1.069652171e-06
1.014696522e-06
-1.403149952e-07
-9.619677712e-07
-2.787398216e-06
-1.963049499e-06
-1.575003466e-06
-2.31545755e-06
-3.610908607e-06
-4.516650279e-06
-6.39171094e-06
-5.457802672e-06
-6.60334581e-06
-7.552545412e-06
-9.050086192e-06
-1.00200532e-05
-1.196163612e-05
-1.099695692e-05
-1.142856217e-05
-1.239361518e-05
-1.335965226e-05
-1.436015282e-05
-1.638625508e-05
-1.537093885e-05
-1.684737435e-05
-1.787093424e-05
-2.060736733e-05
-2.162899546e-05
-2.368215792e-05
-2.265468538e-05
-2.454335117e-05
-2.558254346e-05
-2.865614442e-05
-2.971475624e-05
-3.184368688e-05
-3.077696238e-05
-3.289787855e-05
-3.397725231e-05
-3.616809772e-05
-3.506500434e-05
-2.760193092e-05
-2.655525714e-05
-1.958356916e-05
-1.856197196e-05
-1.236286789e-05
-1.137626168e-05
-8.078183782e-06
-7.118552276e-06
-2.68733379e-06
-1.790893975e-06
8.468659871e-07
1.648185048e-06
3.779107374e-06
5.559118563e-06
4.704803814e-06
4.650811661e-06
2.833510052e-06
2.887930805e-06
3.444376034e-06
2.641039146e-06
2.038778348e-06
1.282036465e-06
-5.127191685e-07
2.203352096e-07
1.129951954e-08
-8.758764807e-07
-2.873107178e-06
-3.787406513e-06
-5.653783319e-06
-4.720472134e-06
-5.211305961e-06
-6.159678833e-06
-7.561802704e-06
-8.526376405e-06
-1.046242323e-05
-9.501537534e-06
-9.422159565e-06
-1.039502513e-05
-1.280050947e-05
-1.380167214e-05
-1.582325785e-05
-1.481186337e-05
-1.651360799e-05
-1.753728975e-05
-2.043534005e-05
-2.145831058e-05
-2.351055991e-05
-2.248405508e-05
-2.447024053e-05
-2.550897807e-05
-2.86322138e-05
-2.969197885e-05
-3.182189903e-05
-3.075399945e-05
-3.289277083e-05
-3.397369073e-05
-2.75769944e-05
-2.653172305e-05
-1.941055598e-05
-1.838656135e-05
-1.180620984e-05
-1.081604933e-05
-6.594278602e-06
-5.637940376e-06
-1.955969537e-06
-1.052476819e-06
3.067909347e-06
3.825972726e-06
6.45029877e-06
6.503381428e-06
8.267176781e-06
8.215217349e-06
7.044029644e-06
6.226281585e-06
4.430632544e-06
5.240216979e-06
5.605028036e-06
4.856666237e-06
3.592105031e-06
2.709312639e-06
9.200756494e-07
1.801313147e-06
7.494155625e-07
-1.446147735e-07
-1.483630058e-06
-2.400968469e-06
-4.265068128e-06
-3.332727601e-06
-3.738015039e-06
-4.683350198e-06
-5.554549261e-06
-6.517091606e-06
-8.453571354e-06
-7.488450592e-06
-8.857208741e-06
-9.831353964e-06
-1.246737156e-05
-1.346926274e-05
-1.549171975e-05
-1.447862451e-05
-1.63459863e-05
-1.736465128e-05
-2.036582555e-05
-2.138831042e-05
-2.343866436e-05
-2.241388029e-05
-2.444665188e-05
-2.54853403e-05
-2.862615656e-05
-2.968749686e-05
-3.181835928e-05
-3.075072891e-05
-2.757151924e-05
-2.652569128e-05
-1.933892781e-05
-1.831661757e-05
-1.146947307e-05
-1.048098329e-05
-4.594783604e-06
-3.644857998e-06
-5.696174412e-07
3.357619107e-07
4.494882432e-06
5.371024599e-06
8.019358575e-06
8.825943951e-06
1.056796282e-05
9.776136721e-06
9.146393495e-06
8.419342521e-06
6.640692391e-06
7.37604114e-06
7.146926691e-06
6.273415693e-06
4.325403097e-06
3.437706255e-06
1.651068715e-06
2.540227797e-06
2.134859869e-06
1.239573749e-06
-1.825578977e-08
-9.336550306e-07
-2.794174407e-06
-1.864493015e-06
-1.75928983e-06
-2.69913312e-06
-4.984689895e-06
-5.94832818e-06
-7.886559615e-06
-6.920780834e-06
-8.52075209e-06
-9.495543964e-06
-1.230051839e-05
-1.330328632e-05
-1.532468013e-05
-1.431296005e-05
-1.627608981e-05
-1.729406722e-05
-2.03433774e-05
-2.136661169e-05
-2.341591971e-05
-2.239169953e-05
-2.444175152e-05
-2.548020166e-05
-1.931957922e-05
-1.829679059e-05
-1.130135388e-05
-1.031117517e-05
-4.026183888e-06
-3.079785301e-06
8.949726862e-07
1.795339472e-06
5.215932561e-06
6.096071957e-06
1.018866624e-05
1.090240676e-05
1.263466038e-05
1.193364551e-05
1.066798814e-05
9.805498848e-06
8.043963135e-06
8.912789781e-06
7.864383406e-06
6.984979336e-06
5.695510481e-06
4.813511623e-06
3.031480446e-06
3.919978099e-06
3.591078212e-06
2.699234301e-06
1.935263072e-06
1.025184361e-06
-8.213182809e-07
1.023791327e-07
-1.198383984e-06
-2.134376473e-06
-4.645137778e-06
-5.61065508e-06
-7.54985831e-06
-6.582652532e-06
-8.351521501e-06
-9.328420674e-06
-1.223379513e-05
-1.323470133e-05
-1.525560583e-05
-1.424243874e-05
-1.625398727e-05
-1.727366362e-05
-2.03389136e-05
-2.136227704e-05
-2.341160689e-05
-2.238644083e-05
-1.931560109e-05
-1.829399844e-05
-1.123347465e-05
-1.024489575e-05
-3.687059234e-06
-2.738549938e-06
2.842596814e-06
3.73905641e-06
6.580950867e-06
7.458784239e-06
1.155451264e-05
1.241321297e-05
1.41406872e-05
1.329302449e-05
1.136969513e-05
1.050300307e-05
8.749673725e-06
9.623322512e-06
9.21625724e-06
8.341145076e-06
7.138994533e-06
6.26014571e-06
4.485666523e-06
5.372267879e-06
5.522967513e-06
4.635241112e-06
2.483397793e-06
1.573118197e-06
-2.658598532e-07
6.570483606e-07
-8.616318041e-07
-1.796435527e-06
-4.472391538e-06
-5.436082574e-06
-7.378213013e-06
-6.409010894e-06
-8.282519047e-06
-9.258917089e-06
-1.221384264e-05
-1.321462423e-05
-1.523323772e-05
-1.422177593e-05
-1.624863762e-05
-1.727012568e-05
-1.121510468e-05
-1.022594006e-05
-3.513260708e-06
-2.565572004e-06
3.388364348e-06
4.284354873e-06
8.018500921e-06
8.893170161e-06
1.224424068e-05
1.310931293e-05
1.483360938e-05
1.397906817e-05
1.269878703e-05
1.1836054e-05
1.009500738e-05
1.096398228e-05
1.064181379e-05
9.771191799e-06
9.055782357e-06
8.177376912e-06
6.410035439e-06
7.293601357e-06
6.062220564e-06
5.176844752e-06
2.809108992e-06
1.901529913e-06
6.710264699e-08
9.861471426e-07
-6.89195133e-07
-1.621389856e-06
-4.400921171e-06
-5.364720892e-06
-7.305479812e-06
-6.33570744e-06
-8.259003152e-06
-9.2396931e-06
-1.220875765e-05
-1.321130821e-05
-1.523060746e-05
-1.421863362e-05
-1.121041896e-05
-1.022137803e-05
-3.443251899e-06
-2.49344339e-06
3.713549177e-06
4.608986728e-06
9.929774933e-06
1.079880531e-05
1.356785197e-05
1.442997836e-05
1.614886787e-05
1.529579276e-05
1.410482309e-05
1.324602999e-05
1.151509423e-05
1.237965625e-05
1.253642131e-05
1.167066057e-05
9.589299225e-06
8.712800081e-06
6.948030205e-06
7.831374205e-06
6.383815162e-06
5.499714916e-06
2.976658152e-06
2.069988113e-06
2.38040073e-07
1.157760835e-06
-6.173196425e-07
-1.549772151e-06
-4.378509857e-06
-5.341647466e-06
-7.284304502e-06
-6.312526239e-06
-8.254623026e-06
-9.234983736e-06
-3.420291705e-06
-2.470268555e-06
3.880443273e-06
4.77579988e-06
1.046136822e-05
1.13298247e-05
1.496904952e-05
1.582919322e-05
1.754474579e-05
1.669163612e-05
1.598172457e-05
1.51244858e-05
1.340293056e-05
1.426383824e-05
1.30649787e-05
1.220029571e-05
9.90647095e-06
9.032128219e-06
7.268617537e-06
8.151038855e-06
6.546340956e-06
5.663685897e-06
3.046670372e-06
2.140241122e-06
3.10628252e-07
1.228914016e-06
-5.9468573e-07
-1.52748612e-06
-4.372715921e-06
-5.337046332e-06
-7.278887097e-06
-6.308200227e-06
-3.415969331e-06
-2.465793159e-06
3.949117854e-06
4.843516763e-06
1.07778269e-05
1.164601599e-05
1.684140079e-05
1.769904338e-05
1.940924994e-05
1.855656956e-05
1.650536979e-05
1.56488295e-05
1.392974627e-05
1.478920785e-05
1.337962385e-05
1.251555113e-05
1.006966158e-05
9.19508966e-06
7.430681762e-06
8.313719263e-06
6.612834568e-06
5.730780686e-06
3.068393198e-06
2.162214514e-06
3.328991056e-07
1.251693902e-06
-5.895548156e-07
-1.523265951e-06
3.970205853e-06
4.861715297e-06
1.093971514e-05
1.180603795e-05
1.736482591e-05
1.822180457e-05
1.993108708e-05
1.907870501e-05
1.681869617e-05
1.596115544e-05
1.424307902e-05
1.510217953e-05
1.353806692e-05
1.267536027e-05
1.013495057e-05
9.262360436e-06
7.497925253e-06
8.379964129e-06
6.632985787e-06
5.749428055e-06
3.07191749e-06
2.165461638e-06
3.379905706e-07
1.255245024e-06
3.971285423e-06
4.863672984e-06
1.100465579e-05
1.187130147e-05
1.767628964e-05
1.853286813e-05
2.024230889e-05
1.939083086e-05
1.69784289e-05
1.612070992e-05
1.440199048e-05
1.526214874e-05
1.360325132e-05
1.273867383e-05
1.01530004e-05
9.280348422e-06
7.518603525e-06
8.399894796e-06
6.636709713e-06
5.750848231e-06
1.102210808e-05
1.188890383e-05
1.783623338e-05
1.869164043e-05
2.039945684e-05
1.954960135e-05
1.704451461e-05
1.618654824e-05
1.446736951e-05
1.532786155e-05
1.362229887e-05
1.275775139e-05
1.01558453e-05
9.283357031e-06
7.521007319e-06
8.403211723e-06
1.102473834e-05
1.189201248e-05
1.790202441e-05
1.875802809e-05
2.046519876e-05
1.961473208e-05
1.706392686e-05
1.620709736e-05
1.448803232e-05
1.534877447e-05
1.36262297e-05
1.275904197e-05
1.792302101e-05
1.87767746e-05
2.048392707e-05
1.963535396e-05
1.706775583e-05
1.620992771e-05
1.449089359e-05
1.53523888e-05
1.792378862e-05
1.878109106e-05
2.048898023e-05
1.963581963e-05
2.973276423e-05
3.235076292e-05
3.272332469e-05
3.382340219e-05
3.411841681e-05
3.632100561e-05
3.675337575e-05
3.68573892e-05
3.772544005e-05
4.065922258e-05
3.994509461e-05
3.981464761e-05
4.045959213e-05
4.209296458e-05
4.598357918e-05
4.361277388e-05
4.30775799e-05
4.348632501e-05
4.491844447e-05
4.750302833e-05
4.938082566e-05
4.575923958e-05
4.686017928e-05
4.732348316e-05
4.692257789e-05
4.809211532e-05
5.052662891e-05
5.094127118e-05
5.623051402e-05
5.069831241e-05
5.357701593e-05
4.910500866e-05
4.892553989e-05
4.686208558e-05
5.239865641e-05
5.17777371e-05
4.897212784e-05
5.390717342e-05
5.401921226e-05
5.938632603e-05
6.341129483e-05
5.396870256e-05
5.401727321e-05
5.647295256e-05
5.371100269e-05
5.431417958e-05
5.33796665e-05
5.585988765e-05
5.580572179e-05
5.470350516e-05
5.618329305e-05
5.133828017e-05
5.687552766e-05
5.744719965e-05
5.791833246e-05
6.173009024e-05
6.636604667e-05
5.950581181e-05
6.538509479e-05
7.043409278e-05
7.021890633e-05
5.606558261e-05
5.691957631e-05
6.007903357e-05
6.001002112e-05
5.884817801e-05
5.848786168e-05
5.812420568e-05
5.819343278e-05
5.590846922e-05
5.903408601e-05
5.800019426e-05
5.874790804e-05
5.925973164e-05
6.019401553e-05
6.677674537e-05
6.512923574e-05
6.474892871e-05
6.140357436e-05
6.869742356e-05
6.953316915e-05
7.079226634e-05
7.226392336e-05
7.373864355e-05
7.547343557e-05
7.516487676e-05
5.886633153e-05
5.968914775e-05
6.311912875e-05
6.014464816e-05
6.231689622e-05
6.325243157e-05
6.323419802e-05
5.891931141e-05
6.135099102e-05
6.197889161e-05
6.054222467e-05
6.157944154e-05
6.15970639e-05
6.061224485e-05
6.507868966e-05
6.500367454e-05
6.14469318e-05
6.265705451e-05
6.376177043e-05
6.905107148e-05
7.078436465e-05
6.752816262e-05
7.257978723e-05
7.378371811e-05
7.640644617e-05
7.730945072e-05
7.607479347e-05
7.753956015e-05
7.890031702e-05
6.061541353e-05
6.128131645e-05
6.588784163e-05
6.459535507e-05
6.49287831e-05
6.617127656e-05
6.574094004e-05
6.534934801e-05
6.58961435e-05
6.205371028e-05
6.59130601e-05
6.317090447e-05
6.418381963e-05
6.276728527e-05
6.192123692e-05
6.50896327e-05
6.929425581e-05
6.930535892e-05
6.519683666e-05
6.678033969e-05
6.988379755e-05
6.973500422e-05
7.136753266e-05
7.677277608e-05
7.298173296e-05
7.680964336e-05
7.818123413e-05
7.820268365e-05
7.47450249e-05
7.500827633e-05
7.503511733e-05
7.001400081e-05
7.966477278e-05
7.646497397e-05
7.972383901e-05
7.727787306e-05
7.916861796e-05
8.145649917e-05
8.15159583e-05
7.919735071e-05
8.135855751e-05
8.142180741e-05
8.129481284e-05
8.064487338e-05
8.288829849e-05
8.303661889e-05
8.346547838e-05
8.543515287e-05
8.472555783e-05
8.457039075e-05
6.165044033e-05
6.271342136e-05
6.851545186e-05
6.719882367e-05
6.683124957e-05
6.81044985e-05
6.800291158e-05
6.858322013e-05
6.737023068e-05
6.866275362e-05
6.880721048e-05
6.413619121e-05
6.564825162e-05
6.474982365e-05
6.355060759e-05
6.839769048e-05
7.272047515e-05
7.186251605e-05
7.138859655e-05
7.082532829e-05
6.985265645e-05
7.364303019e-05
7.365968486e-05
7.691659266e-05
7.746788469e-05
7.907138206e-05
7.830907271e-05
7.999307127e-05
7.513362652e-05
7.742780144e-05
7.982366515e-05
8.330124547e-05
8.261867333e-05
8.407008136e-05
8.512507338e-05
8.398979116e-05
8.344116213e-05
8.460071695e-05
8.636930579e-05
8.65017937e-05
8.671484102e-05
8.602347953e-05
8.665040514e-05
8.799938223e-05
9.158567991e-05
6.348874012e-05
6.463492173e-05
6.895445404e-05
7.126678975e-05
6.968811795e-05
6.895051774e-05
6.993085117e-05
6.943533663e-05
7.009888941e-05
7.087593985e-05
7.054607704e-05
7.136607746e-05
6.606061652e-05
6.740526442e-05
6.708587898e-05
6.58525023e-05
7.306178304e-05
7.536585326e-05
7.403422933e-05
7.436753367e-05
7.328799984e-05
7.208249735e-05
7.704245945e-05
7.648767496e-05
7.943078526e-05
8.008295845e-05
7.868613466e-05
8.109974442e-05
8.103516302e-05
8.224881458e-05
8.017298387e-05
7.969563012e-05
8.335424354e-05
8.613005048e-05
8.534968947e-05
8.68641655e-05
8.768720727e-05
8.650583186e-05
8.580143913e-05
8.787034312e-05
9.256309568e-05
9.282900282e-05
9.399400733e-05
8.831450396e-05
9.003779996e-05
9.295938071e-05
9.16486315e-05
6.692164607e-05
6.816073437e-05
7.088320126e-05
7.504939276e-05
7.21063916e-05
7.046316023e-05
7.097248454e-05
7.166450814e-05
7.229694893e-05
7.229973562e-05
7.306273619e-05
7.236398233e-05
7.258052938e-05
6.831144856e-05
6.949053932e-05
7.0755661e-05
6.947122893e-05
7.393943088e-05
7.677155372e-05
7.628657477e-05
7.599907985e-05
7.571988681e-05
7.380679017e-05
7.913320587e-05
7.857813762e-05
8.165254258e-05
8.144398453e-05
8.283323405e-05
8.020409587e-05
8.311062993e-05
8.395519399e-05
8.645156049e-05
8.18282715e-05
8.148881898e-05
8.14924133e-05
8.772212459e-05
8.772834553e-05
8.855916531e-05
8.855510532e-05
8.706885274e-05
8.933857316e-05
8.934602374e-05
9.011731163e-05
9.011336078e-05
8.835984772e-05
8.833396714e-05
8.966676251e-05
9.48533052e-05
9.584315558e-05
9.682321979e-05
9.065085032e-05
9.172874707e-05
9.607130778e-05
9.717654029e-05
9.673279419e-05
6.802025018e-05
6.929584924e-05
7.432218263e-05
7.629249012e-05
7.583475963e-05
7.367307262e-05
7.291006477e-05
7.439911133e-05
7.385248318e-05
7.413042476e-05
7.652500062e-05
7.407570956e-05
7.429103425e-05
7.4293137e-05
7.188033487e-05
7.285890752e-05
7.197636296e-05
7.065274986e-05
7.576857752e-05
7.79230686e-05
7.778556028e-05
7.745262701e-05
7.745411131e-05
7.726755575e-05
7.726616604e-05
7.571895549e-05
7.572415052e-05
8.089587209e-05
8.089551557e-05
8.022849943e-05
8.02318973e-05
8.456850628e-05
8.456532669e-05
8.38447304e-05
8.384758257e-05
8.528768376e-05
8.528254693e-05
8.340844943e-05
8.340551722e-05
8.636986604e-05
8.6377142e-05
8.741759666e-05
8.742028149e-05
8.897072985e-05
8.40202556e-05
8.316994354e-05
8.346681716e-05
8.939947293e-05
8.971850184e-05
9.053629037e-05
9.020392463e-05
8.923722635e-05
9.10073577e-05
9.134200809e-05
9.213480371e-05
9.086601494e-05
9.181743371e-05
9.087183571e-05
9.045909974e-05
9.194732411e-05
9.384549048e-05
9.820835839e-05
9.780020628e-05
9.878030687e-05
9.913743997e-05
9.4693758e-05
9.50717149e-05
9.569071699e-05
9.595704614e-05
9.829092596e-05
9.927691281e-05
9.876639524e-05
6.875676627e-05
7.006271335e-05
7.54803259e-05
7.71604391e-05
7.704323798e-05
7.475184975e-05
7.518549683e-05
7.803953486e-05
7.70790939e-05
7.748459757e-05
7.762683526e-05
7.651544001e-05
7.589233428e-05
7.617090887e-05
7.305647159e-05
7.395421562e-05
7.283325976e-05
7.14638154e-05
7.812888362e-05
7.957078924e-05
7.956624904e-05
8.008497389e-05
7.926697435e-05
7.949972496e-05
7.90674676e-05
7.879916666e-05
7.724093302e-05
7.762675523e-05
8.280395559e-05
8.25369425e-05
8.185297338e-05
8.213393448e-05
8.643728506e-05
8.614639955e-05
8.545694436e-05
8.571074432e-05
8.721084305e-05
8.685258945e-05
8.513961802e-05
8.477843949e-05
8.783565136e-05
8.825947589e-05
8.879670349e-05
8.897663793e-05
9.077439609e-05
8.577649714e-05
8.485812577e-05
8.521988639e-05
9.111019608e-05
9.147368837e-05
9.227937699e-05
9.188512195e-05
9.164721996e-05
9.164708899e-05
9.409194899e-05
9.451482038e-05
9.532303375e-05
9.428850171e-05
9.493529797e-05
9.466658958e-05
9.543137276e-05
9.626315295e-05
9.582018538e-05
0.0001002599747
9.977404261e-05
0.0001007297105
0.0001011772038
9.670847794e-05
9.717435751e-05
9.763181879e-05
9.799365216e-05
9.998385212e-05
0.000100933139
0.0001004427031
6.920292799e-05
7.053271838e-05
7.628608e-05
7.772109529e-05
7.788010407e-05
7.549030852e-05
7.872859715e-05
7.921136421e-05
7.813966658e-05
7.859873585e-05
7.836920122e-05
7.993534382e-05
7.920328062e-05
7.950725558e-05
7.387633377e-05
7.470002311e-05
7.338983414e-05
7.197321975e-05
8.148200868e-05
8.140739374e-05
8.095394878e-05
8.338801854e-05
8.254824934e-05
8.286615775e-05
8.227837679e-05
8.199518925e-05
8.043638081e-05
8.090218762e-05
8.588009223e-05
8.557448018e-05
8.492073539e-05
8.524807345e-05
8.810507279e-05
8.77655184e-05
8.711895498e-05
8.74169491e-05
8.891583275e-05
8.849416918e-05
8.679596795e-05
8.639677981e-05
8.941606211e-05
8.990606875e-05
9.035035328e-05
9.060052253e-05
9.320351819e-05
8.81904416e-05
8.726235683e-05
8.765905659e-05
9.354045324e-05
9.390120249e-05
9.470107034e-05
9.429943748e-05
9.5234529e-05
9.50092799e-05
9.513569239e-05
9.556749865e-05
9.638087795e-05
9.570783732e-05
9.599894111e-05
9.608708933e-05
9.703353135e-05
9.788801981e-05
9.744179988e-05
0.000101880054
0.0001014078589
0.000102334765
0.0001027851104
9.833729564e-05
9.880159632e-05
9.924472397e-05
9.962439071e-05
0.0001012154462
0.0001021437711
0.0001016738242
6.943802146e-05
7.078655472e-05
7.679825649e-05
7.804836787e-05
7.841911429e-05
7.595041097e-05
7.987757272e-05
8.001262177e-05
7.885532978e-05
7.935942267e-05
7.882650243e-05
8.101369167e-05
8.030179015e-05
8.059917309e-05
7.44046265e-05
7.516442565e-05
7.371779793e-05
7.225861191e-05
8.2572682e-05
8.447734581e-05
8.398243517e-05
8.44537426e-05
8.362568042e-05
8.395616896e-05
8.333958976e-05
8.306490781e-05
8.148994675e-05
8.1979073e-05
8.689938113e-05
8.659799641e-05
8.597513079e-05
8.628758951e-05
9.041836893e-05
9.008144843e-05
8.946198068e-05
8.975512173e-05
9.123653581e-05
9.081089229e-05
8.914250066e-05
8.872781473e-05
9.171692363e-05
9.219827189e-05
9.264049731e-05
9.292827599e-05
9.391317144e-05
8.88864015e-05
8.796252951e-05
8.836785128e-05
9.424441669e-05
9.459902503e-05
9.540044994e-05
9.499567386e-05
9.67358792e-05
9.644564852e-05
9.584407962e-05
9.628733096e-05
9.710774611e-05
9.676029731e-05
9.673008753e-05
9.713045438e-05
9.819764819e-05
9.907728963e-05
9.863074229e-05
0.000103066981
0.0001026102327
0.0001035202004
0.0001039645067
9.953374683e-05
9.99905169e-05
0.0001004305232
0.000100819947
0.0001020502896
0.0001029608684
0.0001025047677
6.954139826e-05
7.090376312e-05
7.709095371e-05
7.822787302e-05
7.873309369e-05
7.620157703e-05
8.067291492e-05
8.051506302e-05
7.929099957e-05
7.983038086e-05
7.907574036e-05
8.173834794e-05
8.105755842e-05
8.134252857e-05
7.471183199e-05
7.541980449e-05
7.389354869e-05
7.240089326e-05
8.332614379e-05
8.550594794e-05
8.499833348e-05
8.517162496e-05
8.435965719e-05
8.469719614e-05
8.406775305e-05
8.38107444e-05
8.220487507e-05
8.271963452e-05
8.759343473e-05
8.729699766e-05
8.671886462e-05
8.700870239e-05
9.108563245e-05
9.075127309e-05
9.016031254e-05
9.043729369e-05
9.191055142e-05
9.148287063e-05
8.985298336e-05
8.941623673e-05
9.23909829e-05
9.288005094e-05
9.33329211e-05
9.362312267e-05
9.435422544e-05
8.931767661e-05
8.839443035e-05
8.880809037e-05
9.467615018e-05
9.502564353e-05
9.58292585e-05
9.542022599e-05
9.783777932e-05
9.750445315e-05
9.627891995e-05
9.673406021e-05
9.75625735e-05
9.747727017e-05
9.718880756e-05
9.783804126e-05
9.898449935e-05
9.988130478e-05
9.943199984e-05
0.000103868857
0.0001034201632
0.0001043211378
0.0001047664555
0.0001003456928
0.0001008009713
0.0001012375869
0.000101635218
0.0001025642268
0.0001034586239
0.0001030110943
6.957774895e-05
7.095146429e-05
7.724334864e-05
7.832875417e-05
7.889894187e-05
7.632080815e-05
8.118298138e-05
8.07969991e-05
7.952172018e-05
8.008730219e-05
7.919030031e-05
8.218149742e-05
8.153547242e-05
8.180267469e-05
7.487030962e-05
7.553739852e-05
7.398603339e-05
7.246910536e-05
8.380810323e-05
8.622517635e-05
8.569221973e-05
8.561421419e-05
8.481164696e-05
8.515476657e-05
8.452538168e-05
8.429284935e-05
8.264520147e-05
8.31867801e-05
8.802162483e-05
8.773188165e-05
8.720627375e-05
8.746990352e-05
9.149605467e-05
9.116263391e-05
9.060537559e-05
9.086170758e-05
9.232996672e-05
9.189677075e-05
9.031449736e-05
8.985048771e-05
9.281483653e-05
9.331443289e-05
9.378323739e-05
9.406688332e-05
9.459852299e-05
8.955413068e-05
8.862845425e-05
8.905032882e-05
9.490727098e-05
9.525382484e-05
9.605945525e-05
9.564694483e-05
9.858594422e-05
9.822221909e-05
9.651335859e-05
9.697899804e-05
9.781627159e-05
9.79192846e-05
9.744486306e-05
9.82720012e-05
9.946637874e-05
0.0001003718426
9.99185213e-05
0.0001043575758
0.0001039115596
0.0001048108388
0.0001052575681
0.000100843652
0.0001013027868
0.0001017363247
0.0001021397547
0.0001028424158
0.0001037227121
0.0001032808359
6.959439634e-05
7.097511843e-05
7.732411905e-05
7.836159784e-05
7.89845144e-05
7.637055387e-05
8.147874178e-05
8.093815995e-05
7.962219388e-05
8.020854148e-05
7.922933582e-05
8.241753676e-05
8.18059998e-05
8.20529167e-05
7.49429164e-05
7.55790752e-05
7.399043534e-05
7.251220086e-05
8.40867142e-05
8.668805094e-05
8.612601232e-05
8.585509931e-05
8.505547885e-05
8.540334238e-05
8.478199743e-05
8.457650983e-05
8.288375102e-05
8.344902744e-05
8.825457189e-05
8.797071496e-05
8.749787958e-05
8.773576701e-05
9.17179932e-05
9.138451423e-05
9.085991769e-05
9.10951203e-05
9.256119665e-05
9.212175064e-05
9.058637806e-05
9.009456699e-05
9.305158164e-05
9.356596274e-05
9.404781304e-05
9.432092338e-05
9.471504018e-05
8.96678539e-05
8.873743354e-05
8.916603838e-05
9.501490422e-05
9.535941354e-05
9.616724128e-05
9.575161675e-05
9.904506442e-05
9.866017353e-05
9.662352386e-05