/*--------------------------------*- C++ -*----------------------------------*\
  =========                 |
  \\      /  F ield         | OpenFOAM: The Open Source CFD Toolbox
   \\    /   O peration     | Website:  https://openfoam.org
    \\  /    A nd           | Version:  8
     \\/     M anipulation  |
\*---------------------------------------------------------------------------*/






FoamFile
{
    version     2.0;
    format      ascii;
    class       volVectorField;
    location    "0";
    object      UDDES;
}
// * * * * * * * * * * * * * * * * * * * * * * * * * * * * * * * * * * * * * //

dimensions      [0 1 -1 0 0 0 0];


internalField   nonuniform List<vector> 
12225
(
( -0.001809373265 -0.001638978603 -0.0005022294354 )
( -0.002598925959 -0.001462609856 -0.0005225398345 )
( -0.001622925745 -0.001647969475 -0.0004935967154 )
( -0.002989385743 -0.001367707388 -0.0005200862652 )
( -0.002409375506 -0.0014697765 -0.0005083538708 )
( -0.001348314807 -0.001672780258 -0.000471082225 )
( -0.003675446846 -0.001179635758 -0.0004980924423 )
( -0.002793977968 -0.001372644212 -0.0005052697961 )
( -0.002127058338 -0.001492297859 -0.0004896265455 )
( -0.001166892238 -0.001680107787 -0.0004368865339 )
( -0.004305284936 -0.0009790522745 -0.0004689298512 )
( -0.003363629337 -0.001183304004 -0.000497658446 )
( -0.002594429068 -0.001382559305 -0.0005003105616 )
( -0.001932446845 -0.001504653832 -0.0004670772469 )
( -0.0009953142144 -0.001647807774 -0.0003960080212 )
( -0.00487185549 -0.0007722334703 -0.0004455375602 )
( -0.004070483148 -0.0009836240206 -0.000482489937 )
( -0.003247982822 -0.001188832102 -0.000501283328 )
( -0.002296866849 -0.001403345959 -0.0004827666271 )
( -0.001738187391 -0.00147680426 -0.0004413539136 )
( -0.0008234347915 -0.001601792406 -0.0003717082145 )
( -0.005132301245 -0.0006671732408 -0.0004338479193 )
( -0.004623435903 -0.0007755061379 -0.0004653726355 )
( -0.005006478168 -0.0006682722596 -0.000443418714 )
( -0.003840098623 -0.0009894964751 -0.0004946632544 )
( -0.003028056351 -0.001202327898 -0.0005010661553 )
( -0.002091227565 -0.001377341338 -0.0004660207196 )
( -0.001547539141 -0.001426229603 -0.0004289777426 )
( -0.0006487354403 -0.001558570541 -0.0003656510962 )
( -0.005534435622 -0.0004800321767 -0.0004012759309 )
( -0.004375765566 -0.0007822409971 -0.0004758490832 )
( -0.00475371303 -0.0006728864973 -0.0004621122498 )
( -0.004880811088 -0.0006694013719 -0.0004541822709 )
( -0.005408256315 -0.0004806910874 -0.0004098634818 )
( -0.003607862862 -0.0009927154751 -0.0004988070577 )
( -0.002696097363 -0.001179780345 -0.0004969003494 )
( -0.001891534426 -0.001325099729 -0.000461017713 )
( -0.001349189668 -0.001380877453 -0.0004324047477 )
( -0.0004714039387 -0.001516619581 -0.000378210505 )
( -0.005706447642 -0.0003748757881 -0.0003741031396 )
( -0.005702707451 -0.0003749293392 -0.0003742334957 )
( -0.00462700054 -0.000675975054 -0.0004631446791 )
( -0.004014677834 -0.000777506968 -0.000477289519 )
( -0.004499916453 -0.0006782085984 -0.0004605872382 )
( -0.005153204314 -0.0004831536789 -0.0004212259373 )
( -0.005281676538 -0.0004812969128 -0.0004175539943 )
( -0.005578012206 -0.0003752747434 -0.0003788323957 )
( -0.005581813399 -0.0003752776247 -0.0003786660673 )
( -0.003253897186 -0.000971126603 -0.0005035569193 )
( -0.002479133895 -0.001131870435 -0.0005048820749 )
( -0.00168475078 -0.001277679345 -0.0004696806136 )
( -0.001149086282 -0.001332959859 -0.0004401522456 )
( -0.0002839748631 -0.001457657898 -0.0004012230784 )
( -0.005816972815 -0.000308328541 -0.000351874769 )
( -0.005765459035 -0.0003000184079 -0.0003523986379 )
( -0.005023982376 -0.000485933444 -0.0004195037473 )
( -0.003764756024 -0.0007591276662 -0.0004799235612 )
( -0.004248279613 -0.000672827533 -0.000458526134 )
( -0.004374475218 -0.0006775406655 -0.0004590936587 )
( -0.004894880112 -0.0004879957123 -0.0004144769628 )
( -0.005323315505 -0.0003755186335 -0.0003844102612 )
( -0.005327194463 -0.0003754682257 -0.0003844363382 )
( -0.00545679871 -0.0003747799783 -0.0003837931436 )
( -0.005452963524 -0.0003747713345 -0.0003838890116 )
( -0.00564145064 -0.0002990038483 -0.000355293887 )
( -0.005693627987 -0.0003083758056 -0.00035451437 )
( -0.003019908676 -0.0009351271437 -0.0005118963309 )
( -0.002268479438 -0.001083911629 -0.0005207185168 )
( -0.001478695427 -0.001231412985 -0.0004770662053 )
( -0.0009489165968 -0.001269288943 -0.0004505518591 )
( -9.116436559e-05 -0.001374906395 -0.0004103670362 )
( -0.00586439576 -0.0002433528716 -0.0003286960709 )
( -0.005813166033 -0.000245214731 -0.0003285151906 )
( -0.005196635146 -0.0003779796243 -0.0003809643094 )
( -0.00519276876 -0.0003780732513 -0.0003808460315 )
( -0.004122919403 -0.0006642115768 -0.0004582401016 )
( -0.00363456062 -0.000747011276 -0.0004829030659 )
( -0.003998888656 -0.0006551291444 -0.0004591381294 )
( -0.004639474209 -0.0004850284022 -0.000405546627 )
( -0.004766610917 -0.0004878282198 -0.0004087123962 )
( -0.005063747521 -0.0003804520238 -0.0003751016629 )
( -0.005067590624 -0.0003804002481 -0.0003752881894 )
( -0.005385892 -0.0002978727862 -0.0003553683928 )
( -0.005441674497 -0.0003058310831 -0.0003575720475 )
( -0.005569424946 -0.0003065850178 -0.0003576966701 )
( -0.00551653048 -0.0002974437666 -0.0003582281061 )
( -0.00568944402 -0.0002429358428 -0.0003289706074 )
( -0.005743111949 -0.0002423658298 -0.0003284669947 )
( -0.002805065829 -0.000899806153 -0.0005250023678 )
( -0.002064019442 -0.00104607211 -0.0005280487821 )
( -0.001281681238 -0.001171290176 -0.0004774046247 )
( -0.000753255852 -0.001189842937 -0.0004526218981 )
( 9.526220674e-05 -0.001286997111 -0.0004105645348 )
( -0.0058661066 -0.0002111982612 -0.0003093217965 )
( -0.005811159965 -0.000201244693 -0.0003075109271 )
( -0.00531096058 -0.0003082881158 -0.0003526531218 )
( -0.005255597178 -0.0003010975488 -0.0003493882541 )
( -0.004515184555 -0.0004793974222 -0.0004048509873 )
( -0.003300259355 -0.000715834205 -0.0004985759151 )
( -0.003759752261 -0.0006380089326 -0.0004680069105 )
( -0.00387816946 -0.0006461513694 -0.0004628105671 )
( -0.004393187352 -0.0004738902499 -0.0004070762079 )
( -0.004810467362 -0.0003799794649 -0.0003697063075 )
( -0.004814209417 -0.0003800707636 -0.0003696974018 )
( -0.004939901177 -0.0003817995894 -0.0003706648131 )
( -0.004936060403 -0.0003817974357 -0.0003705297422 )
( -0.005128259771 -0.0003040570882 -0.0003447785566 )
( -0.005181518383 -0.0003115767613 -0.0003465890768 )
( -0.005438401829 -0.0002401043312 -0.0003265890409 )
( -0.005491375457 -0.0002372705203 -0.0003291660396 )
( -0.005618723575 -0.0002390738955 -0.0003303895355 )
( -0.005565839354 -0.0002397224162 -0.0003305916907 )
( -0.005689799786 -0.0001979018707 -0.0003073685511 )
( -0.005745868199 -0.0002095162345 -0.000307274051 )
( -0.002601556247 -0.0008708416135 -0.0005298838951 )
( -0.001872717054 -0.0009956056019 -0.0005135381361 )
( -0.001090452075 -0.001092683175 -0.0004736478732 )
( -0.0005625138292 -0.001110547106 -0.0004502960364 )
( 0.0002749680716 -0.001202380285 -0.0004281375441 )
( -0.005845933221 -0.0001884458325 -0.0002987773041 )
( -0.005789051298 -0.0001853628346 -0.0002967106702 )
( -0.005362967029 -0.0002404010156 -0.0003222760279 )
( -0.005310487933 -0.0002446002327 -0.0003193010634 )
( -0.004691320006 -0.000376274169 -0.0003716097272 )
( -0.004687679 -0.0003761269618 -0.0003716688952 )
( -0.003644243814 -0.0006295089843 -0.0004739383003 )
( -0.003085607663 -0.0006951745017 -0.0005041317199 )
( -0.003530448303 -0.0006215866306 -0.0004796617432 )
( -0.004154118709 -0.0004621304688 -0.0004220559495 )
( -0.004272678867 -0.0004685231252 -0.0004138380173 )
( -0.00456570182 -0.000371430011 -0.0003756351362 )
( -0.004569303244 -0.0003715608036 -0.0003754892678 )
( -0.004878222942 -0.0003043221368 -0.0003453622921 )
( -0.0049300096 -0.0003136885061 -0.0003430853831 )
( -0.005055403803 -0.0003136594314 -0.0003424340102 )
( -0.00500245858 -0.0003054473782 -0.0003421157016 )
( -0.005185429007 -0.0002477235394 -0.0003141241614 )
( -0.005236887373 -0.0002445950813 -0.0003151546698 )
( -0.005442073569 -0.0001948529534 -0.0003039119183 )
( -0.005499484949 -0.0002030149335 -0.0003068863298 )
( -0.005623004865 -0.0002051915799 -0.000308126153 )
( -0.005566802807 -0.0001939397771 -0.0003083483025 )
( -0.005669270642 -0.0001817669254 -0.0002956418903 )
( -0.005727568641 -0.0001867107931 -0.0002957271354 )
( -0.002404532628 -0.000824481016 -0.0005161362351 )
( -0.001685423078 -0.0009156555752 -0.000499234884 )
( -0.0008991683135 -0.001016032416 -0.000468357408 )
( -0.0003807493486 -0.001033080625 -0.0004601842957 )
( 0.0004441698547 -0.001125259791 -0.0004588522133 )
( -0.005749342497 -0.0001515060576 -0.0002770751307 )
( -0.005693886429 -0.0001480238279 -0.0002744813683 )
( -0.005374494474 -0.0002070652845 -0.0003000088036 )
( -0.005317897536 -0.0001999110973 -0.0002959811827 )
( -0.004808422178 -0.0003106992226 -0.0003469222866 )
( -0.004757396877 -0.0003004684986 -0.0003489649389 )
( -0.004035954829 -0.0004555395572 -0.0004298236745 )
( -0.002877544379 -0.000652531744 -0.0004917858751 )
( -0.003310695756 -0.0006044254405 -0.0004848557001 )
( -0.003419694491 -0.000613220036 -0.000484113727 )
( -0.003919662442 -0.0004500954528 -0.0004352059914 )
( -0.004329259507 -0.0003612970468 -0.0003924513876 )
( -0.004332786426 -0.0003615040623 -0.000392170914 )
( -0.004449975677 -0.0003669543366 -0.0003835450916 )
( -0.004446403123 -0.0003667793353 -0.0003838276898 )
( -0.004637002014 -0.0002967856999 -0.0003545399231 )
( -0.004687422886 -0.0003067645303 -0.0003514727869 )
( -0.0049397517 -0.0002487052989 -0.0003169564879 )
( -0.004991075955 -0.000246924028 -0.0003152128193 )
( -0.00511454884 -0.0002466210572 -0.0003127033706 )
( -0.005062271841 -0.000249073084 -0.000312756456 )
( -0.005196369719 -0.0002032940101 -0.0002908922033 )
( -0.005251302384 -0.0002118470438 -0.000292679586 )
( -0.005425867159 -0.0001784007472 -0.0002904465364 )
( -0.005485276226 -0.0001798502926 -0.0002938235411 )
( -0.00560668204 -0.0001820658217 -0.0002958575205 )
( -0.005548114888 -0.0001775630953 -0.0002954704105 )
( -0.0055788639 -0.0001441303466 -0.0002727332467 )
( -0.005634603091 -0.000149251573 -0.0002731115383 )
( -0.002208679914 -0.0007422701456 -0.0005009872839 )
( -0.001492425217 -0.0008369467687 -0.000483752141 )
( -0.0007145380368 -0.0009439693531 -0.0004672674404 )
( -0.000209449543 -0.0009678676724 -0.0004808494705 )
( 0.0005983065348 -0.001050270279 -0.000487574056 )
( -0.005550665781 -0.0001108595243 -0.00024950839 )
( -0.005497381091 -0.0001089954385 -0.000247174612 )
( -0.005362691823 -0.0001837027085 -0.0002863123955 )
( -0.005303948652 -0.0001836650044 -0.0002818820358 )
( -0.004869814962 -0.0002452396729 -0.0003209226707 )
( -0.004821000621 -0.0002460738178 -0.0003229403519 )
( -0.00421426259 -0.0003548756067 -0.0004000469635 )
( -0.004210759886 -0.0003547157103 -0.0004002650967 )
( -0.00320391031 -0.0005900890101 -0.0004787979415 )
( -0.00267614075 -0.0005758109619 -0.0004752664245 )
( -0.003098880174 -0.000565299415 -0.0004691286886 )
( -0.003696050262 -0.0004400308535 -0.0004348733637 )
( -0.003806709079 -0.0004454293812 -0.0004370115057 )
( -0.00409386633 -0.0003514925193 -0.0004053788434 )
( -0.00409731362 -0.0003515712742 -0.0004052546283 )
( -0.004403370433 -0.0002867494768 -0.0003731057222 )
( -0.004452258814 -0.00029785675 -0.0003706461866 )
( -0.004568753298 -0.0003030337975 -0.0003597188042 )
( -0.004519309383 -0.0002925031295 -0.0003648553393 )
( -0.00470286794 -0.0002434466005 -0.0003308928281 )
( -0.004751402885 -0.0002424605773 -0.0003276275529 )
( -0.004954328761 -0.0002041971456 -0.0002951847855 )
( -0.005009378307 -0.0002139505668 -0.0002928193426 )
( -0.005130828824 -0.0002134322422 -0.0002901533444 )
( -0.005075389985 -0.0002040174732 -0.0002905868168 )
( -0.005184128881 -0.0001872652938 -0.0002769405255 )
( -0.005241950974 -0.0001886589889 -0.000278945663 )
( -0.005346726626 -0.000140301403 -0.0002669221722 )
( -0.005403131247 -0.0001417793537 -0.0002700717305 )
( -0.005518854596 -0.0001442763751 -0.0002725076629 )
( -0.005463206209 -0.0001395620347 -0.0002721199417 )
( -0.005389443133 -0.0001052737352 -0.0002452797198 )
( -0.005442349706 -0.0001086310658 -0.0002456706716 )
( -0.002014962956 -0.0006651446456 -0.0004773958062 )
( -0.001303154626 -0.0007746789488 -0.0004641685518 )
( -0.0005415197229 -0.0008847952122 -0.0004790347302 )
( -4.793344124e-05 -0.0009078551084 -0.0005108051701 )
( 0.0006753747002 -0.001012001652 -0.0005067911698 )
( -0.004811617546 -5.343482189e-05 -0.0001898666378 )
( -0.00476630358 -5.262223203e-05 -0.0001882948854 )
( -0.005286599509 -0.0001457957114 -0.0002628233633 )
( -0.005230638664 -0.0001458388142 -0.000258774031 )
( -0.004889829084 -0.0002131879155 -0.0002989556233 )
( -0.004836532287 -0.0002027472656 -0.0003031184606 )
( -0.004335144069 -0.0002909684554 -0.0003765956208 )
( -0.004285403527 -0.0002807145065 -0.0003786613524 )
( -0.003588143969 -0.0004285904579 -0.0004259325215 )
( -0.002489497187 -0.0005089493352 -0.0004552371684 )
( -0.002898341743 -0.0004947921261 -0.0004523259704 )
( -0.002996435855 -0.000531188969 -0.0004601744004 )
( -0.003483005101 -0.000409275468 -0.0004156888463 )
( -0.003871011082 -0.0003463160538 -0.0004025774542 )
( -0.003874272341 -0.0003464727488 -0.0004027932591 )
( -0.003985566553 -0.0003488796647 -0.0004065461108 )
( -0.003982201219 -0.0003488427901 -0.0004065354296 )
( -0.004170613363 -0.0002785539546 -0.0003823323059 )
( -0.004217368085 -0.0002878343512 -0.0003816823009 )
( -0.004472643137 -0.0002336844336 -0.0003480498854 )
( -0.004520354327 -0.0002354169701 -0.0003462609602 )
( -0.004635619931 -0.0002403953549 -0.0003365405137 )
( -0.004586766008 -0.0002400585217 -0.0003420474241 )
( -0.00472065853 -0.0002011891047 -0.0003119956818 )
( -0.004773298744 -0.0002115742536 -0.000307475857 )
( -0.004944575951 -0.0001883573859 -0.0002810199803 )
( -0.005001597106 -0.0001904242381 -0.0002787641715 )
( -0.005122344475 -0.0001904174133 -0.0002763527445 )
( -0.005064313766 -0.00018801236 -0.0002767777769 )
( -0.005114104599 -0.000149369007 -0.0002526176104 )
( -0.005170997232 -0.0001509396243 -0.000255089195 )
( -0.005174943712 -0.0001008818217 -0.0002400296216 )
( -0.005227613263 -0.0001007895626 -0.0002428110602 )
( -0.005334636662 -0.0001035137248 -0.0002450039028 )
( -0.005281991791 -0.0001002827339 -0.0002443305857 )
( -0.004676923621 -4.973391333e-05 -0.0001865482191 )
( -0.004721063189 -5.207530194e-05 -0.0001871077839 )
( -0.001833121758 -0.0006131034461 -0.0004536630877 )
( -0.001127884956 -0.0007276027463 -0.0004609450989 )
( -0.0004525970726 -0.0008558975533 -0.0004918748746 )
( 3.22513697e-05 -0.0008773227455 -0.0005363071105 )
( -0.004248715471 -3.416810796e-05 -0.0001572968904 )
( -0.004208758473 -3.383365765e-05 -0.0001557353244 )
( -0.005120267626 -0.0001046998223 -0.0002365564869 )
( -0.005067320541 -0.0001063180243 -0.0002322987712 )
( -0.004884149414 -0.0001906632388 -0.0002846181742 )
( -0.004828155041 -0.0001873212168 -0.00028893532 )
( -0.004404387902 -0.000227591765 -0.0003506171051 )
( -0.004356226418 -0.0002274334256 -0.0003520333848 )
( -0.0037669905 -0.0003387546167 -0.0003943439224 )
( -0.003763863584 -0.0003383527219 -0.0003940187453 )
( -0.002805577591 -0.0004621400149 -0.0004451129935 )
( -0.002318480751 -0.0004693028168 -0.0004373324336 )
( -0.002717107069 -0.0004362002364 -0.0004373551928 )
( -0.003288184991 -0.0003556408046 -0.0004027894174 )
( -0.003381647402 -0.0003822327126 -0.0004079235368 )
( -0.003660785034 -0.0003221975931 -0.0003849967034 )
( -0.003663873067 -0.0003227925627 -0.0003851853544 )
( -0.003948559519 -0.000278557156 -0.0003792028292 )
( -0.003994865343 -0.0002874662168 -0.0003820603306 )
( -0.004105984699 -0.0002863976988 -0.000383205479 )
( -0.004059975035 -0.0002784027311 -0.0003832744551 )
( -0.004241871648 -0.0002271370467 -0.0003557913005 )
( -0.004289131146 -0.0002251097612 -0.0003547604138 )
( -0.004493049812 -0.0001920692448 -0.0003271057503 )
( -0.004544725176 -0.0002055470395 -0.0003257826611 )
( -0.004658387043 -0.0002101193822 -0.0003177822509 )
( -0.004606562201 -0.0001989397861 -0.0003223036765 )
( -0.004713292234 -0.0001858876203 -0.0002985220926 )
( -0.004768592771 -0.0001893471344 -0.0002936650999 )
( -0.004882794339 -0.0001500122744 -0.0002542536531 )
( -0.004938478116 -0.0001524816471 -0.0002520589333 )
( -0.00505570136 -0.000152628927 -0.000250668003 )
( -0.004998992663 -0.0001495365723 -0.0002506909368 )
( -0.004957280122 -0.0001094812396 -0.0002242030459 )
( -0.005011069123 -0.0001094894906 -0.0002282650239 )
( -0.004508245736 -4.508349957e-05 -0.0001840695913 )
( -0.004549119622 -4.471650391e-05 -0.0001853933645 )
( -0.004632930737 -4.738971256e-05 -0.0001863661601 )
( -0.004590791184 -4.501439616e-05 -0.000186010293 )
( -0.004130513407 -3.16196456e-05 -0.0001542570099 )
( -0.004169230815 -3.350335464e-05 -0.0001546651765 )
( -0.001663729083 -0.0005767641123 -0.0004432401911 )
( -0.0009677939815 -0.0006894302205 -0.0004870295525 )
( -0.0002988946217 -0.0008061816334 -0.0005356357433 )
( -0.003562572179 -1.938092646e-05 -0.0001235565869 )
( -0.003525802167 -1.928093116e-05 -0.0001216785458 )
( -0.004465882201 -4.731222361e-05 -0.000181600728 )
( -0.004422815517 -4.891243952e-05 -0.0001780975872 )
( -0.004824540578 -0.0001531877642 -0.0002571234654 )
( -0.00477009872 -0.0001498837082 -0.0002615270205 )
( -0.004431291483 -0.0001974804036 -0.000328088121 )
( -0.004380097147 -0.000185664685 -0.0003296959912 )
( -0.003886849154 -0.0002841285022 -0.0003741465625 )
( -0.003844391555 -0.0002713342838 -0.0003697025822 )
( -0.003200537525 -0.0003317861701 -0.0004006386735 )
( -0.002232283587 -0.0004537299101 -0.0004293883103 )
( -0.00255101081 -0.0004006599484 -0.0004243947333 )
( -0.002632408403 -0.0004164175771 -0.0004303700989 )
( -0.003116493579 -0.0003131106787 -0.0003976596345 )
( -0.003470616881 -0.0002781576768 -0.000377193559 )
( -0.003473182674 -0.0002788139682 -0.000377256074 )
( -0.003563971724 -0.0003010815126 -0.0003796429373 )
( -0.003561154474 -0.0003003927995 -0.0003794855438 )
( -0.003742463188 -0.0002573436359 -0.0003643061209 )
( -0.003784886561 -0.0002723590878 -0.0003658532805 )
( -0.004022870213 -0.000231113183 -0.0003555176954 )
( -0.004068594892 -0.0002285205119 -0.0003570207627 )
( -0.004178681877 -0.0002262406779 -0.0003568163665 )
( -0.004132368602 -0.0002297743049 -0.0003587985993 )
( -0.004267988726 -0.0001862543286 -0.0003331148764 )
( -0.004318129737 -0.0001944127434 -0.0003317049413 )
( -0.004487897269 -0.0001765390043 -0.0003117624728 )
( -0.004541941918 -0.0001834831346 -0.0003110864782 )
( -0.00465454068 -0.0001878986077 -0.0003042886965 )
( -0.004600198008 -0.0001835334115 -0.0003080561 )
( -0.004657607991 -0.0001488202543 -0.0002718269534 )
( -0.004711883143 -0.0001522226084 -0.0002664318017 )
( -0.004738973919 -0.0001106068594 -0.0002222446055 )
( -0.004792646971 -0.0001110137673 -0.0002208770893 )
( -0.004902135581 -0.0001110019803 -0.0002215109998 )
( -0.004849579185 -0.0001101114322 -0.0002202159085 )
( -0.004333309364 -5.151310324e-05 -0.0001697624684 )
( -0.004378073849 -5.089680053e-05 -0.0001738972205 )
( -0.003988464829 -2.759760355e-05 -0.0001531857415 )
( -0.004022548441 -2.74444028e-05 -0.0001540341327 )
( -0.004092823714 -2.973117989e-05 -0.0001541810634 )
( -0.004057163373 -2.78230782e-05 -0.0001543510007 )
( -0.003463753965 -1.794311174e-05 -0.0001211125928 )
( -0.003492786083 -1.915675966e-05 -0.0001207151217 )
( -0.001578937867 -0.0005650385283 -0.0004488755658 )
( -0.0008928498719 -0.0006746483268 -0.0005090790801 )
( -0.002781931078 -9.223013876e-06 -8.97723221e-05 )
( -0.002751267049 -9.236357982e-06 -8.812247688e-05 )
( -0.003953055944 -2.901486005e-05 -0.0001514343166 )
( -0.00391651364 -3.017798917e-05 -0.0001485398825 )
( -0.004683473147 -0.0001118304062 -0.0002252474078 )
( -0.004630364012 -0.0001103787945 -0.0002284985676 )
( -0.00443001464 -0.0001755705161 -0.0003131543926 )
( -0.00437661726 -0.0001700135617 -0.0003142400528 )
( -0.00396032352 -0.000227356024 -0.0003510692914 )
( -0.003917312715 -0.0002265213407 -0.0003484867339 )
( -0.003387766425 -0.0002586294431 -0.0003764489084 )
( -0.003385263029 -0.0002580731525 -0.0003764679132 )
( -0.00247206632 -0.0003888047067 -0.0004194227222 )
( -0.002080916893 -0.0004401660408 -0.0004277891421 )
( -0.002396660391 -0.000382410537 -0.0004176103394 )
( -0.002954996424 -0.0002843370021 -0.0003948919475 )
( -0.003034703899 -0.0002973071823 -0.0003953824344 )
( -0.003304263111 -0.0002416686766 -0.0003758158418 )
( -0.003306700382 -0.0002421010722 -0.0003758163366 )
( -0.003558000783 -0.0002189553343 -0.0003617567127 )
( -0.003593781963 -0.000235371117 -0.000361096405 )
( -0.003683008254 -0.000254443934 -0.0003628281993 )
( -0.003644980257 -0.0002378551435 -0.0003625154495 )
( -0.003815551987 -0.0002162352321 -0.0003462337772 )
( -0.003857791191 -0.0002190355735 -0.0003458550491 )
( -0.004049927928 -0.0001923842938 -0.000335199933 )
( -0.004098698497 -0.0002013874619 -0.0003370412451 )
( -0.004207208753 -0.0001974174811 -0.0003347477468 )
( -0.004158098716 -0.000190420571 -0.0003370177583 )
( -0.00426571304 -0.000170790925 -0.0003179236082 )
( -0.0043191812 -0.000172310567 -0.0003165492672 )
( -0.004437320866 -0.0001411353442 -0.0002834870247 )
( -0.004489681218 -0.0001475507597 -0.000283198955 )
( -0.004599880893 -0.0001511147566 -0.0002774575842 )
( -0.004546454176 -0.0001470180578 -0.0002808359568 )
( -0.004522013478 -0.0001096018896 -0.0002384434338 )
( -0.004575102124 -0.0001111437159 -0.0002332381991 )
( -0.004149123095 -5.189185322e-05 -0.0001620593539 )
( -0.004195512738 -5.223386324e-05 -0.0001623153366 )
( -0.004287469201 -5.223858898e-05 -0.0001663397707 )
( -0.004241923802 -5.187299757e-05 -0.0001637621754 )
( -0.003839333076 -3.224179818e-05 -0.0001413721766 )
( -0.003878282383 -3.165740054e-05 -0.00014503079 )
( -0.003349384293 -1.494500248e-05 -0.000121022611 )
( -0.003376519075 -1.497859193e-05 -0.0001213752039 )
( -0.003432960715 -1.660587986e-05 -0.0001212121351 )
( -0.003404129529 -1.531615999e-05 -0.000121398356 )
( -0.002704695566 -8.548533515e-06 -8.807799895e-05 )
( -0.002725305967 -9.213361409e-06 -8.754881856e-05 )
( -0.001438858802 -0.0005558543489 -0.0004808493541 )
( -0.001966180978 -3.529532023e-06 -5.993875675e-05 )
( -0.001947959769 -3.578881433e-06 -5.978039553e-05 )
( -0.00332125579 -1.571712528e-05 -0.0001197450547 )
( -0.003291805973 -1.637987407e-05 -0.0001176051883 )
( -0.004101750441 -5.253132986e-05 -0.0001632348722 )
( -0.004055064172 -5.221486208e-05 -0.0001645670563 )
( -0.004381831735 -0.0001403746865 -0.0002839381632 )
( -0.004330505151 -0.0001350457605 -0.000284979702 )
( -0.003991304897 -0.0002013438207 -0.000332478201 )
( -0.003943921998 -0.0001895144087 -0.0003304171551 )
( -0.003508402035 -0.0002162890451 -0.0003622254007 )
( -0.003475122154 -0.0002002573165 -0.0003621178621 )
( -0.002877786523 -0.0002764062374 -0.0003964429779 )
( -0.001939022215 -0.0004417251912 -0.0004579703091 )
( -0.002251476515 -0.0003824205196 -0.0004301590379 )
( -0.002323718043 -0.0003805888118 -0.0004199391697 )
( -0.002802447882 -0.0002737154718 -0.0004005254887 )
( -0.003144180635 -0.0002157912822 -0.0003780127445 )
( -0.00314650801 -0.0002160725417 -0.0003779456893 )
( -0.003225582186 -0.0002281519992 -0.0003764025751 )
( -0.00322321197 -0.0002277584426 -0.0003764305147 )
( -0.003396112239 -0.0001858594915 -0.0003631004656 )
( -0.003428307828 -0.0002000444365 -0.0003622860531 )
( -0.003635243513 -0.0001841841877 -0.0003479333245 )
( -0.003670056118 -0.0001893331646 -0.0003473487741 )
( -0.003758849343 -0.0002051597548 -0.0003458489082 )
( -0.003721548477 -0.0002004734415 -0.0003463762114 )
( -0.003843887243 -0.0001815335709 -0.000330310344 )
( -0.003887483384 -0.0001954030013 -0.0003298821684 )
( -0.004049002193 -0.0001783766929 -0.0003217962803 )
( -0.004100762773 -0.0001805704378 -0.0003231662558 )
( -0.004208816215 -0.0001760848536 -0.0003200801148 )
( -0.004156620707 -0.0001754538243 -0.0003221215156 )
( -0.004223648459 -0.0001357666915 -0.0002881500404 )
( -0.004275205545 -0.0001373480482 -0.0002865650749 )
( -0.004310877994 -0.0001042450021 -0.0002488894388 )
( -0.004361460451 -0.0001081567752 -0.0002486265148 )
( -0.004467217252 -0.0001104659896 -0.0002432490874 )
( -0.004415145144 -0.0001085234253 -0.0002466533042 )
( -0.00396216847 -5.214260455e-05 -0.0001690994686 )
( -0.004007949959 -5.253311974e-05 -0.0001661989809 )
( -0.003679822432 -3.212337833e-05 -0.0001329868974 )
( -0.003719822736 -3.236320845e-05 -0.0001336555142 )
( -0.003799561178 -3.268580622e-05 -0.0001382310438 )
( -0.003759944811 -3.235244003e-05 -0.000135513983 )
( -0.003228591522 -1.775472811e-05 -0.0001120782254 )
( -0.003260770114 -1.734715988e-05 -0.0001149315649 )
( -0.002621293534 -6.722041689e-06 -8.888333105e-05 )
( -0.002641591011 -6.81571828e-06 -8.917725063e-05 )
( -0.002684329869 -7.827216905e-06 -8.883619739e-05 )
( -0.002662323881 -7.047442978e-06 -8.898946544e-05 )
( -0.001911723288 -3.262592145e-06 -5.928630708e-05 )
( -0.001926153782 -3.5867306e-06 -5.865970525e-05 )
( -0.001159689622 -9.509082588e-07 -3.393055158e-05 )
( -0.001157111023 -9.868215329e-07 -3.546848166e-05 )
( -0.002600198146 -7.044784979e-06 -8.824028919e-05 )
( -0.002578117652 -7.318260032e-06 -8.683365741e-05 )
( -0.003641625633 -3.267205466e-05 -0.0001334215194 )
( -0.003600854659 -3.270371235e-05 -0.0001338199945 )
( -0.004259261303 -0.0001024825979 -0.0002492943895 )
( -0.004210168961 -9.902048623e-05 -0.0002492241038 )
( -0.003993632738 -0.0001806959772 -0.000319711573 )
( -0.003943481017 -0.000176141155 -0.0003185066744 )
( -0.003585797036 -0.0001723520836 -0.0003482595494 )
( -0.003552492242 -0.0001669536286 -0.000349062233 )
( -0.003070192179 -0.0002111189096 -0.0003823067818 )
( -0.003067905083 -0.0002110276837 -0.0003824427258 )
( -0.002178765833 -0.0003828875779 -0.0004473646986 )
( -0.002106102649 -0.0003795462253 -0.0004673068179 )
( -0.002653290983 -0.0002753119334 -0.0004144952691 )
( -0.002727657557 -0.0002735510352 -0.0004066323163 )
( -0.002993945964 -0.0002085336746 -0.0003876512928 )
( -0.002996195806 -0.0002085387241 -0.0003874668328 )
( -0.003239535959 -0.0001627431047 -0.0003682591778 )
( -0.003270456567 -0.0001741845917 -0.0003666129487 )
( -0.003348944476 -0.000186757854 -0.0003642025986 )
( -0.003316669958 -0.0001727577619 -0.0003654959728 )
( -0.003475076053 -0.0001530063455 -0.0003515784047 )
( -0.003506858367 -0.0001564981503 -0.0003497473663 )
( -0.003663381096 -0.0001530108566 -0.0003347805468 )
( -0.003701279406 -0.0001699395798 -0.0003333962522 )
( -0.00379050686 -0.0001844431536 -0.0003309005406 )
( -0.003750637174 -0.0001683023875 -0.0003325442376 )
( -0.003843362443 -0.0001694578677 -0.000319540035 )
( -0.003890187945 -0.0001762323227 -0.0003187527764 )
( -0.004010867327 -0.0001444270601 -0.0002940998529 )
( -0.00406180229 -0.0001461798674 -0.0002942834108 )
( -0.00416828692 -0.0001411391277 -0.0002904716239 )
( -0.00411703065 -0.0001408781391 -0.0002929912298 )
( -0.004109531175 -9.966061043e-05 -0.0002522782597 )
( -0.00415893551 -9.958153532e-05 -0.000250224839 )
( -0.003782724263 -5.036092261e-05 -0.0001799574966 )
( -0.003826530185 -5.205116759e-05 -0.0001786950597 )
( -0.003916188143 -5.274616706e-05 -0.000172192551 )
( -0.003871668829 -5.225303175e-05 -0.0001760502055 )
( -0.003520102939 -3.304593702e-05 -0.0001365741191 )
( -0.003560041077 -3.311430191e-05 -0.0001348215446 )
( -0.003100593109 -1.742291715e-05 -0.0001045477547 )
( -0.003130499274 -1.759191946e-05 -0.0001051984436 )
( -0.003195790108 -1.802971565e-05 -0.0001093615574 )
( -0.003163079731 -1.765590787e-05 -0.0001071186271 )
( -0.002529854886 -8.103390428e-06 -8.285274089e-05 )
( -0.002554573817 -7.856411685e-06 -8.490022446e-05 )
( -0.00185167545 -2.357353878e-06 -5.917886301e-05 )
( -0.001865748549 -2.453092748e-06 -5.93509867e-05 )
( -0.001895329682 -2.927664809e-06 -5.914912981e-05 )
( -0.00188003981 -2.552747674e-06 -5.936621164e-05 )
( -0.001124400762 -8.376882192e-07 -3.29583745e-05 )
( -0.001138209831 -9.938086123e-07 -3.379079135e-05 )
( -0.0005672508269 -4.531580089e-08 -1.686750329e-05 )
( -0.0005695371656 -8.307265631e-08 -1.826799598e-05 )
( -0.001837257994 -2.463147212e-06 -5.873298869e-05 )
( -0.00182202924 -2.525693844e-06 -5.791497097e-05 )
( -0.003071268555 -1.791563409e-05 -0.0001047429687 )
( -0.003040684853 -1.81581745e-05 -0.0001049801576 )
( -0.003739493201 -4.914810415e-05 -0.0001802921324 )
( -0.003697982756 -4.731698209e-05 -0.0001799972379 )
( -0.003956393339 -0.0001474489545 -0.0002932153002 )
( -0.003906858154 -0.0001434938022 -0.0002933869546 )
( -0.003617385868 -0.0001540567755 -0.000334178796 )
( -0.003582518548 -0.000136946459 -0.000334404438 )
( -0.003194341902 -0.0001690296922 -0.0003710869642 )
( -0.003164589871 -0.0001597552327 -0.0003737155057 )
( -0.002578724641 -0.0002755104215 -0.0004237061366 )
( -0.002505041659 -0.0002734582813 -0.0004331278324 )
( -0.002845593961 -0.0002115871175 -0.0003986258816 )
( -0.002847803291 -0.000211555438 -0.0003984549548 )
( -0.00292182574 -0.000209868449 -0.0003927153302 )
( -0.002919614082 -0.000209876147 -0.0003928761289 )
( -0.003092638217 -0.0001592966582 -0.0003787569585 )
( -0.00312110642 -0.0001668036421 -0.0003765824949 )
( -0.003323735669 -0.0001322810713 -0.0003588235122 )
( -0.003354379442 -0.0001335384004 -0.000357720186 )
( -0.003429451957 -0.0001439316984 -0.0003535269643 )
( -0.003398402128 -0.0001408567186 -0.0003551121335 )
( -0.003505838104 -0.0001240146667 -0.0003377704415 )
( -0.003538708203 -0.0001390212128 -0.0003358784597 )
( -0.003662976436 -0.0001425828086 -0.00032569014 )
( -0.003703669412 -0.0001529548026 -0.0003243368992 )
( -0.003794041229 -0.0001668448531 -0.0003206779948 )
( -0.003750517499 -0.000157423201 -0.0003223738167 )
( -0.003807288129 -0.0001386868826 -0.0002964115702 )
( -0.00385416043 -0.000144525824 -0.0002946164459 )