/*--------------------------------*- C++ -*----------------------------------*\
  =========                 |
  \\      /  F ield         | OpenFOAM: The Open Source CFD Toolbox
   \\    /   O peration     | Website:  https://openfoam.org
    \\  /    A nd           | Version:  8
     \\/     M anipulation  |
\*---------------------------------------------------------------------------*/






FoamFile
{
    version     2.0;
    format      ascii;
    class       volScalarField;
    location    "0";
    object      V;
}
// * * * * * * * * * * * * * * * * * * * * * * * * * * * * * * * * * * * * * //

dimensions      [0 3 0 0 0 0 0];


internalField   nonuniform List<scalar> 
12225
(
0.0002782534595
0.0002705015167
0.000278253541
0.0002615259756
0.0002705015796
0.00027825376
0.0002513315556
0.0002615260115
0.0002705017692
0.000278254119
0.0002400015566
0.0002513315538
0.000261526159
0.0002705021026
0.0002782545638
0.0002276991372
0.0002400015149
0.0002513316433
0.0002615264395
0.0002705025274
0.0002782550525
8.165663743e-05
0.0002276990613
8.165665561e-05
0.0002400015248
0.0002513318523
0.0002615268348
0.0002705030177
0.0002782554981
7.509988949e-05
0.0002276990639
8.165678507e-05
8.165665196e-05
7.509988632e-05
0.0002400016459
0.0002513321929
0.0002615273055
0.0002705034931
0.0002782557866
2.552059375e-05
2.552058941e-05
8.16568234e-05
0.0002276990585
8.165694548e-05
7.510015531e-05
7.509998907e-05
2.552062937e-05
2.552061256e-05
0.0002400018967
0.0002513326317
0.0002615277956
0.0002705038463
0.0002782557902
2.251745901e-05
2.251747654e-05
7.510034565e-05
0.0002276991114
8.165693548e-05
8.165691126e-05
7.51004738e-05
2.55208222e-05
2.552078034e-05
2.55206798e-05
2.552071356e-05
2.251754386e-05
2.251750372e-05
0.000240002286
0.0002513331247
0.0002615282127
0.0002705039548
0.0002782553135
1.981882663e-05
1.981885423e-05
2.552089018e-05
2.5520934e-05
8.165687467e-05
0.0002276994098
8.165691068e-05
7.51004882e-05
7.510052081e-05
2.552101949e-05
2.55209875e-05
2.251775507e-05
2.251769798e-05
2.251759117e-05
2.25176436e-05
1.981894116e-05
1.981889313e-05
0.0002400027717
0.0002513335909
0.0002615284307
0.0002705036347
0.000278254117
1.799977956e-05
1.799981041e-05
2.251781413e-05
2.251787474e-05
7.510045273e-05
0.0002276999377
8.16570615e-05
8.165694343e-05
7.510045289e-05
2.552106007e-05
2.552105373e-05
2.55210423e-05
2.552105394e-05
2.251797647e-05
2.251793062e-05
1.981913765e-05
1.981909322e-05
1.981899432e-05
1.981904716e-05
1.799988015e-05
1.799985108e-05
0.000240003275
0.0002513339273
0.0002615282797
0.0002705026484
0.0002782518513
1.777064449e-05
1.777093754e-05
1.981919042e-05
1.981925496e-05
2.552105473e-05
2.552107021e-05
8.16571869e-05
0.0002277004909
8.165731996e-05
7.510064759e-05
7.510052252e-05
2.552109941e-05
2.552107549e-05
2.251804514e-05
2.251803595e-05
2.251800785e-05
2.251802538e-05
1.981937204e-05
1.981932057e-05
1.799999638e-05
1.800000562e-05
1.799992826e-05
1.799999382e-05
1.777070295e-05
1.777099241e-05
0.0002400037108
0.0002513339605
0.0002615275295
0.0002705006648
0.0002782480338
1.464932132e-05
1.465005272e-05
1.800002576e-05
1.800010854e-05
2.251806027e-05
2.251808115e-05
7.510080706e-05
0.000227700926
8.165747384e-05
8.165743005e-05
7.510095334e-05
2.552120104e-05
2.552117137e-05
2.552111664e-05
2.552114724e-05
2.251813698e-05
2.251810834e-05
1.98194481e-05
1.981943508e-05
1.981940795e-05
1.981942555e-05
1.800023527e-05
1.800018236e-05
1.777067651e-05
1.777096392e-05
1.777084093e-05
1.777106376e-05
1.464950491e-05
1.465018199e-05
0.000240003946
0.000251333473
0.0002615258694
0.0002704972215
0.0002782419194
1.207630159e-05
1.20772378e-05
1.777073655e-05
1.777093801e-05
1.981947442e-05
1.981951071e-05
2.552122958e-05
2.552125711e-05
8.165751545e-05
0.0002277013036
8.165748582e-05
7.510105811e-05
7.510104442e-05
2.552129771e-05
2.552128665e-05
2.251824446e-05
2.25182227e-05
2.251816883e-05
2.251819608e-05
1.981958831e-05
1.98195494e-05
1.800021808e-05
1.800023484e-05
1.800025156e-05
1.800025918e-05
1.777097244e-05
1.777103004e-05
1.46495146e-05
1.465011138e-05
1.464982063e-05
1.465030075e-05
1.207654478e-05
1.207740208e-05
0.000240003774
0.0002513321655
0.0002615228735
0.0002704916061
0.0002782323905
9.955250344e-06
9.956247489e-06
1.464966823e-05
1.465005358e-05
1.800025182e-05
1.80003159e-05
2.25182665e-05
2.251828974e-05
7.510100094e-05
0.0002277015712
8.165754401e-05
8.16575479e-05
7.510091894e-05
2.552126036e-05
2.552129503e-05
2.552131229e-05
2.552130156e-05
2.251831851e-05
2.251830803e-05
1.981968704e-05
1.981967934e-05
1.981962892e-05
1.981965979e-05
1.800037848e-05
1.800035032e-05
1.777073408e-05
1.777089082e-05
1.777104709e-05
1.77709426e-05
1.465002315e-05
1.465019694e-05
1.207657627e-05
1.207731176e-05
1.207694401e-05
1.207754071e-05
9.955512974e-06
9.956422896e-06
0.0002400028733
0.0002513296551
0.0002615179079
0.0002704827327
8.206762424e-06
8.207738053e-06
1.207677381e-05
1.207724085e-05
1.777065463e-05
1.777095038e-05
1.981969761e-05
1.981971663e-05
2.552123951e-05
2.552118816e-05
8.165771233e-05
0.0002277012895
8.165773293e-05
7.510084566e-05
7.510084327e-05
2.552109657e-05
2.552116151e-05
2.25182328e-05
2.251827259e-05
2.251831623e-05
2.251830069e-05
1.981973497e-05
1.981973203e-05
1.800044335e-05
1.800049225e-05
1.800042366e-05
1.800049449e-05
1.777067976e-05
1.777102815e-05
1.464973382e-05
1.465001751e-05
1.465024089e-05
1.465003026e-05
1.207717595e-05
1.2077405e-05
9.955555144e-06
9.956327554e-06
9.955935932e-06
9.956565154e-06
8.207021646e-06
8.207909061e-06
0.0002400008547
0.0002513253932
0.0002615099603
6.765388177e-06
6.76629716e-06
9.955766858e-06
9.956253484e-06
1.464952344e-05
1.465015023e-05
1.800044094e-05
1.800049381e-05
2.251818863e-05
2.251813847e-05
7.510091359e-05
0.0002276997971
8.16577469e-05
8.165790395e-05
7.510104927e-05
2.552094554e-05
2.552100578e-05
2.55210751e-05
2.552100809e-05
2.251801952e-05
2.251808007e-05
1.981959863e-05
1.981965381e-05
1.98197245e-05
1.981969752e-05
1.800050917e-05
1.800051966e-05
1.777079924e-05
1.777111464e-05
1.777091298e-05
1.777115765e-05
1.464944678e-05
1.465031112e-05
1.207687299e-05
1.207721247e-05
1.207746151e-05
1.207720361e-05
9.956173571e-06
9.95642075e-06
8.207067801e-06
8.20781752e-06
8.207433914e-06
8.208046143e-06
6.765631129e-06
6.766456118e-06
0.0002399972428
0.0002513185249
5.577179026e-06
5.577999068e-06
8.207276075e-06
8.207746249e-06
1.207660185e-05
1.207737823e-05
1.777070886e-05
1.777108282e-05
1.981954535e-05
1.981948935e-05
2.552096976e-05
2.552091734e-05
8.165770198e-05
0.0002276966147
8.165713808e-05
7.510117422e-05
7.510114935e-05
2.552090843e-05
2.552096378e-05
2.251778124e-05
2.251783011e-05
2.251795435e-05
2.251789137e-05
1.981934548e-05
1.98194238e-05
1.800033133e-05
1.80004247e-05
1.800049421e-05
1.800049086e-05
1.777088049e-05
1.777120443e-05
1.464966614e-05
1.465031898e-05
1.46499478e-05
1.465040564e-05
1.207647097e-05
1.20775757e-05
9.95587865e-06
9.956231231e-06
9.956480485e-06
9.956211142e-06
8.207662481e-06
8.207906166e-06
6.765677742e-06
6.766372147e-06
6.766014468e-06
6.766582739e-06
5.577398956e-06
5.57814269e-06
0.0002399914442
4.597664216e-06
4.598388591e-06
6.765872088e-06
6.766307095e-06
9.955588521e-06
9.956405599e-06
1.464944552e-05
1.465022904e-05
1.800028313e-05
1.800026665e-05
2.25177333e-05
2.25176988e-05
7.510100698e-05
0.0002276915653
8.165577829e-05
8.165679891e-05
7.510067593e-05
2.552084713e-05
2.552093875e-05
2.552096388e-05
2.552089433e-05
2.251762958e-05
2.251766027e-05
1.981901155e-05
1.981909395e-05
1.981926217e-05
1.981917684e-05
1.800009343e-05
1.800020199e-05
1.77707685e-05
1.777107281e-05
1.777102258e-05
1.777118889e-05
1.464967025e-05
1.465045482e-05
1.207673352e-05
1.207753855e-05
1.207709407e-05
1.207764448e-05
9.955433951e-06
9.956611457e-06
8.207388704e-06
8.207728471e-06
8.207964277e-06
8.20770368e-06
6.76622578e-06
6.766454144e-06
5.577443787e-06
5.578068013e-06
5.57774457e-06
5.578256504e-06
4.597858968e-06
4.598515165e-06
3.79018645e-06
3.790816492e-06
5.577619339e-06
5.578010569e-06
8.207103489e-06
8.207897084e-06
1.207645199e-05
1.207742158e-05
1.777074071e-05
1.777100603e-05
1.981894126e-05
1.981887648e-05
2.552087264e-05
2.55207506e-05
8.165524786e-05
8.165383625e-05
7.50994617e-05
7.510012192e-05
2.552059495e-05
2.552075062e-05
2.251745891e-05
2.251750352e-05
2.251758952e-05
2.251755296e-05
1.981873572e-05
1.981881071e-05
1.79997006e-05
1.799982243e-05
1.799999341e-05
1.799992252e-05
1.77705943e-05
1.777100808e-05
1.464963546e-05
1.465021454e-05
1.465002402e-05
1.465039682e-05
1.207669526e-05
1.207769331e-05
9.955705451e-06
9.956550848e-06
9.956090551e-06
9.956661825e-06
8.206944172e-06
8.208096073e-06
6.765979115e-06
6.766292952e-06
6.76650827e-06
6.766266525e-06
5.57793564e-06
5.578142096e-06
4.597900652e-06
4.598450396e-06
4.598164422e-06
4.598615851e-06
3.790356262e-06
3.790926662e-06
3.124528501e-06
3.125069876e-06
4.598056174e-06
4.598400798e-06
6.765712257e-06
6.766447821e-06
9.955406727e-06
9.956424657e-06
1.464961971e-05
1.465024133e-05
1.799962352e-05
1.799958509e-05
2.251739436e-05
2.251733574e-05
7.509865245e-05
7.509785461e-05
2.552015296e-05
2.552036817e-05
2.552057898e-05
2.552039137e-05
2.251718303e-05
2.251725671e-05
1.981843897e-05
1.981851773e-05
1.981866418e-05
1.981859063e-05
1.799939397e-05
1.799950502e-05
1.777028231e-05
1.777055492e-05
1.777056642e-05
1.777069653e-05
1.464950039e-05
1.465033276e-05
1.207670676e-05
1.20774064e-05
1.207714717e-05
1.207761596e-05
9.955646712e-06
9.956708094e-06
8.207205161e-06
8.208025316e-06
8.207581614e-06
8.208133017e-06
6.76555869e-06
6.766631935e-06
5.577717036e-06
5.577999089e-06
5.57819096e-06
5.577973496e-06
4.598333987e-06
4.598516244e-06
3.790394065e-06
3.790871231e-06
3.790621969e-06
3.791014412e-06
3.124674626e-06
3.125164751e-06
3.790529967e-06
3.790828953e-06
5.577475565e-06
5.578137182e-06
8.206912829e-06
8.207901367e-06
1.207669872e-05
1.207748533e-05
1.777023219e-05
1.777041381e-05
1.981836099e-05
1.981828193e-05
2.552014718e-05
2.551990709e-05
2.551964859e-05
2.551992111e-05
2.251683302e-05
2.251691306e-05
2.251709216e-05
2.251701224e-05
1.981812154e-05
1.981820343e-05
1.799903403e-05
1.799914676e-05
1.799929654e-05
1.799923294e-05
1.777008663e-05
1.777048088e-05
1.464929183e-05
1.464976882e-05
1.464958003e-05
1.464997553e-05
1.207660244e-05
1.207762258e-05
9.955683742e-06
9.956411891e-06
9.956127905e-06
9.956625175e-06
8.207137946e-06
8.208175153e-06
6.765799074e-06
6.766558929e-06
6.766149646e-06
6.766658643e-06
5.57733332e-06
5.578302395e-06
4.598142849e-06
4.5983913e-06
4.598559468e-06
4.598367975e-06
3.790770634e-06
3.790929155e-06
3.124708376e-06
3.125117876e-06
3.124903001e-06
3.125240501e-06
3.124825626e-06
3.125082501e-06
4.59792921e-06
4.598512072e-06
6.76552633e-06
6.766443561e-06
9.955681598e-06
9.956517051e-06
1.464925569e-05
1.464969069e-05
1.799895131e-05
1.7998885e-05
2.251674123e-05
2.25166713e-05
2.251650833e-05
2.251657975e-05
1.981783248e-05
1.981790074e-05
1.981804724e-05
1.981797233e-05
1.799870653e-05
1.799879416e-05
1.776987944e-05
1.777012529e-05
1.777005402e-05
1.777023841e-05
1.464912526e-05
1.464993639e-05
1.207646624e-05
1.207703024e-05
1.207673821e-05
1.207726178e-05
9.955605142e-06
9.956671274e-06
8.207188551e-06
8.20789129e-06
8.207609411e-06
8.208094602e-06
6.765731413e-06
6.766696388e-06
5.577548477e-06
5.578231636e-06
5.577865087e-06
5.578321518e-06
4.597800881e-06
4.598657129e-06
3.79060542e-06
3.790821247e-06
3.790966758e-06
3.790800337e-06
3.125032251e-06
3.125168376e-06
3.790419257e-06
3.790925009e-06
5.577302146e-06
5.578127906e-06
8.207190134e-06
8.20800609e-06
1.20764412e-05
1.207699489e-05
1.77698403e-05
1.776995559e-05
1.981778085e-05
1.981774092e-05
1.981765587e-05
1.981770442e-05
1.799846811e-05
1.799853762e-05
1.799863955e-05
1.79986004e-05
1.776954432e-05
1.776986336e-05
1.464906016e-05
1.464949144e-05
1.464916523e-05
1.464966092e-05
1.207632992e-05
1.207732834e-05
9.955519158e-06
9.956099388e-06
9.95576451e-06
9.956330292e-06
8.207129522e-06
8.208161506e-06
6.76578725e-06
6.766436425e-06
6.766171173e-06
6.766621823e-06
5.577484838e-06
5.578354895e-06
4.597989518e-06
4.598591392e-06
4.598269401e-06
4.598670892e-06
3.790305709e-06
3.791050531e-06
3.124890751e-06
3.125075876e-06
3.125200876e-06
3.125057751e-06
3.124730126e-06
3.125164126e-06
4.597772044e-06
4.598499865e-06
6.765791055e-06
6.766550188e-06
9.955501631e-06
9.956092217e-06
1.464906925e-05
1.464941552e-05
1.799845294e-05
1.799847685e-05
1.79985101e-05
1.799850703e-05
1.776948794e-05
1.776961509e-05
1.776966817e-05
1.776970632e-05
1.464867969e-05
1.46493247e-05
1.207635276e-05
1.207686246e-05
1.207640978e-05
1.207705296e-05
9.955410764e-06
9.956457091e-06
8.207078315e-06
8.207634948e-06
8.207293781e-06
8.207851753e-06
6.765743337e-06
6.766698368e-06
5.577540952e-06
5.578123661e-06
5.577881906e-06
5.578288273e-06
4.597932224e-06
4.598699904e-06
3.790468527e-06
3.79099129e-06
3.790712246e-06
3.791060373e-06
3.124631001e-06
3.125271626e-06
3.790279644e-06
3.790911637e-06
5.577545707e-06
5.578230988e-06
8.207067102e-06
8.207645835e-06
1.207638951e-05
1.207684537e-05
1.776944151e-05
1.776972313e-05
1.776985011e-05
1.776986523e-05
1.464880394e-05
1.464902947e-05
1.464906914e-05
1.46491781e-05
1.207597011e-05
1.207676167e-05
9.955484704e-06
9.956009678e-06
9.955509292e-06
9.956200198e-06
8.206995212e-06
8.208008342e-06
6.765716014e-06
6.766227537e-06
6.765901513e-06
6.766424259e-06
5.577508893e-06
5.578366555e-06
4.597985686e-06
4.598498084e-06
4.59828306e-06
4.598641828e-06
3.790418225e-06
3.791085524e-06
3.124770126e-06
3.125219126e-06
3.124980001e-06
3.125278376e-06
3.124607876e-06
3.125150876e-06
4.597990933e-06
4.598596242e-06
6.765709969e-06
6.766249549e-06
9.955535924e-06
9.956028319e-06
1.464864823e-05
1.464919615e-05
1.464923086e-05
1.464938276e-05
1.207618817e-05
1.207645622e-05
1.207648702e-05
1.207662817e-05
9.955124717e-06
9.955953656e-06
8.207096352e-06
8.20760007e-06
8.207099116e-06
8.207778833e-06
6.765654003e-06
6.76659168e-06
5.57749797e-06
5.577954575e-06
5.577654949e-06
5.578128697e-06
4.597962673e-06
4.598717409e-06
3.79046763e-06
3.790911736e-06
3.79072379e-06
3.791035809e-06
3.124726626e-06
3.125300126e-06
3.790473205e-06
3.790999582e-06
5.577494956e-06
5.577983017e-06
8.207153546e-06
8.20763916e-06
1.207597894e-05
1.207664457e-05
1.207662516e-05
1.207684554e-05
9.955382282e-06
9.95565941e-06
9.955683616e-06
9.955835124e-06
8.206770746e-06
8.207573903e-06
6.765768069e-06
6.766230195e-06
6.765756475e-06
6.766392205e-06
5.577453111e-06
5.578295181e-06
4.597962307e-06
4.598362725e-06
4.598093765e-06
4.598513906e-06
3.790451623e-06
3.791106158e-06
3.124771626e-06
3.125152126e-06
3.124989751e-06
3.125258376e-06
3.124776751e-06
3.125229751e-06
4.597961817e-06
4.598394299e-06
6.765825099e-06
6.766280043e-06
9.955153878e-06
9.955847904e-06
9.955798705e-06
9.95604488e-06
8.207034745e-06
8.207302606e-06
8.207321597e-06
8.207470875e-06
6.765480739e-06
6.766224293e-06
5.577569978e-06
5.577982205e-06
5.577549425e-06
5.578125159e-06
4.597931949e-06
4.598671865e-06
3.790457994e-06
3.790804088e-06
3.790567144e-06
3.79093365e-06
3.124760751e-06
3.125322001e-06
3.790459536e-06
3.79083651e-06
5.577623826e-06
5.578036739e-06
8.206808897e-06
8.207479493e-06
8.207415145e-06
8.207662403e-06
6.765733126e-06
6.765980749e-06
6.765996394e-06
6.766135228e-06
5.577321108e-06
5.577989159e-06
4.59804474e-06
4.598406116e-06
4.59801928e-06
4.598529681e-06
3.790438581e-06
3.791079729e-06
3.124771376e-06
3.125067001e-06
3.124861126e-06
3.125177126e-06
3.124773751e-06
3.125099126e-06
4.598094746e-06
4.598460855e-06
6.765520845e-06
6.766140214e-06
6.766070283e-06
6.766304959e-06
5.577552443e-06
5.577774653e-06
5.577788243e-06
5.577913234e-06
4.597832611e-06
4.598420667e-06
3.790544511e-06
3.790856695e-06
3.790516807e-06
3.790962215e-06
3.124760001e-06
3.125309626e-06
3.790589914e-06
3.790908977e-06
5.5773595e-06
5.57791491e-06
5.577845581e-06
5.578059785e-06
4.598038475e-06
4.598234539e-06
4.598246112e-06
4.598356559e-06
3.790365413e-06
3.790875808e-06
3.124857501e-06
3.125124251e-06
3.124829251e-06
3.125213251e-06
3.124897751e-06
3.125173001e-06
4.597867388e-06
4.598355585e-06
4.598289887e-06
4.598480633e-06
3.79054534e-06
3.79071592e-06
3.790725619e-06
3.790821712e-06
3.124707376e-06
3.125145501e-06
3.790395593e-06
3.790818656e-06
3.790758218e-06
3.79092562e-06
3.124862626e-06
3.125009126e-06
3.125017501e-06
3.125100126e-06
3.124732876e-06
3.125095501e-06
3.125041251e-06
3.125186376e-06
0.0002683360932
0.0002595847434
0.0002657012187
0.0002499276666
0.0002566166566
0.000262622253
0.0002388744973
0.0002470240844
0.0002533119805
0.0002589491703
0.0002292013509
0.0002366447153
0.0002429506199
0.0002495724601
0.000254817257
0.0002158784143
0.0002200360908
0.0002345451749
0.0002396929441
0.0002446061315
0.0002499326164
7.676416685e-05
0.0002222909125
7.631392915e-05
0.0002283738687
0.0002245958414
0.0002357767727
0.0002412512794
0.0002382312063
7.044463266e-05
7.040560176e-05
7.259920104e-05
7.255792106e-05
7.479282488e-05
6.882828716e-05
0.0002289862394
7.859916561e-05
0.0002294176646
0.0002241228591
0.0002407897407
0.0002558822476
2.399886322e-05
2.367733767e-05
6.599534234e-05
7.209497467e-05
6.720248384e-05
7.310789868e-05
2.309851318e-05
2.342663532e-05
7.565748611e-05
7.382276228e-05
7.628695388e-05
7.442764506e-05
0.0002240085834
7.885512279e-05
0.000230932067
8.288424154e-05
7.970330683e-05
7.753461735e-05
7.983494173e-05
8.04032047e-05
2.119724167e-05
2.092859329e-05
2.248699653e-05
2.292905026e-05
6.801693518e-05
7.078951474e-05
2.309855355e-05
2.297656035e-05
7.009301485e-05
2.034852755e-05
2.062305095e-05
7.247532592e-05
7.503456672e-05
7.430093207e-05
6.830866927e-05
6.909684049e-05
7.067135624e-05
7.547319516e-05
6.955446877e-05
7.955110716e-05
7.28508672e-05
7.646694455e-05
7.946681884e-05
8.110365999e-05
7.578993024e-05
1.869618242e-05
1.843816572e-05
2.047301477e-05
2.153295047e-05
2.091865694e-05
2.086595866e-05
2.148375008e-05
2.289672085e-05
7.008467951e-05
2.364896731e-05
2.020345444e-05
2.074650839e-05
1.775598305e-05
1.812721819e-05
7.166970934e-05
2.400937781e-05
2.318975407e-05
7.261018547e-05
7.013609736e-05
7.764836306e-05
7.430257681e-05
7.342969476e-05
8.212257891e-05
7.774588613e-05
7.584863776e-05
8.155381996e-05
8.076849701e-05
8.161209334e-05
7.996833217e-05
1.699548781e-05
1.672619809e-05
1.999926985e-05
1.930136761e-05
2.049859537e-05
2.181195866e-05
1.809483552e-05
2.114406017e-05
2.20615495e-05
2.258903426e-05
2.132878659e-05
1.73703119e-05
1.712443427e-05
1.588397419e-05
1.637730457e-05
2.317556746e-05
2.240654103e-05
2.242989288e-05
2.375020939e-05
2.166767681e-05
7.179065956e-05
2.423634293e-05
2.209186887e-05
2.238667915e-05
2.221975637e-05
2.245055421e-05
2.255915403e-05
2.272302577e-05
2.280091415e-05
2.259585381e-05
2.213987833e-05
2.288194743e-05
2.321208485e-05
2.416280863e-05
2.354302917e-05
2.532289355e-05
2.58699904e-05
2.319402259e-05
2.269661147e-05
2.508047395e-05
2.460986358e-05
2.440370687e-05
2.471941871e-05
7.845765798e-05
2.399142014e-05
2.447588659e-05
2.504797146e-05
2.403031923e-05
2.459131673e-05
2.50641634e-05
1.676299198e-05
1.641506295e-05
1.561688395e-05
1.66914491e-05
1.048728204e-05
1.95972141e-05
2.062728933e-05
1.466186438e-05
2.077963436e-05
2.244747736e-05
2.00023903e-05
1.512699758e-05
1.394854193e-05
1.527438524e-05
1.593664505e-05
2.125776987e-05
2.291789107e-05
2.044819702e-05
2.221086804e-05
2.026139947e-05
2.358159283e-05
2.159997707e-05
2.216621858e-05
2.266828596e-05
2.078427867e-05
2.109854987e-05
2.246611275e-05
2.127091426e-05
2.198876827e-05
2.45201395e-05
2.754789595e-05
2.513279587e-05
2.408523968e-05
2.592062037e-05
2.376446396e-05
2.241027727e-05
2.512203275e-05
2.375151841e-05
2.561860934e-05
2.328382256e-05
2.408772038e-05
2.499143645e-05
2.263177382e-05
2.381377202e-05
2.647302338e-05
1.396799953e-05
1.371822443e-05
1.035056739e-05
1.273579948e-05
1.451730508e-05
8.558141456e-06
1.79890445e-05
1.898316635e-05
1.062587975e-05
1.231255257e-05
1.885884313e-05
1.960935124e-05
1.416871139e-05
1.213432143e-05
1.286046524e-05
1.336495748e-05
1.864166844e-05
1.984411839e-05
2.249074621e-05
1.981170316e-05
2.083877721e-05
2.052204174e-05
2.495498192e-05
2.238085885e-05
2.184834359e-05
2.206541266e-05
2.104819158e-05
2.195428654e-05
2.151348488e-05
2.023625331e-05
1.939230538e-05
1.526910585e-05
1.616215364e-05
1.510889778e-05
2.184203757e-05
1.456351631e-05
1.383116996e-05
2.26935617e-05
2.143692526e-05
2.535667319e-05
2.272381882e-05
2.682454226e-05
2.403690011e-05
2.415245761e-05
2.278124436e-05
2.090612492e-05
1.631983029e-05
1.161919187e-05
1.144029362e-05
8.960116818e-06
1.041317611e-05
1.203786091e-05
7.840417866e-06
1.467182684e-05
1.451169262e-05
8.528931329e-06
1.016377781e-05
1.05240675e-05
1.679419285e-05
1.005786069e-05
1.198893715e-05
1.046780509e-05
1.079417449e-05
1.117944511e-05
1.671645714e-05
2.046728347e-05
1.81603604e-05
1.3091954e-05
9.791155607e-06
1.038139544e-05
1.40487251e-05
1.273622702e-05
1.332726312e-05
1.269412307e-05
1.313007781e-05
1.079623427e-05
1.298590065e-05
1.09389111e-05
1.438261349e-05
1.389032083e-05
1.118837849e-05
1.183502778e-05
1.219762172e-05
1.175453531e-05
1.122591859e-05
1.143307751e-05
2.172439233e-05
1.102722191e-05
1.088707225e-05
1.057305557e-05
1.076589007e-05
1.299648516e-05
1.968777744e-05
1.553933371e-05
2.242645014e-05
1.489566338e-05
1.360053684e-05
1.382701971e-05
1.1544868e-05
1.479533308e-05
1.18262749e-05
1.245320247e-05
9.651958625e-06
9.524319471e-06
7.704203736e-06
8.532960678e-06
9.978509792e-06
7.041431543e-06
1.220122976e-05
1.190504488e-05
7.772425518e-06
8.792418556e-06
8.950494207e-06
1.241044938e-05
8.347165925e-06
9.668905364e-06
1.010798602e-05
8.972888752e-06
9.037061849e-06
9.331888436e-06
1.229005199e-05
1.016302076e-05
1.293889044e-05
9.813698947e-06
1.075969396e-05
9.164148801e-06
8.146955211e-06
8.372241369e-06
9.689112972e-06
1.086214752e-05
1.046409131e-05
9.705765166e-06
1.024515633e-05
1.025031597e-05
1.014660846e-05
9.839313358e-06
1.012098622e-05
1.018409588e-05
1.021006749e-05
9.519111341e-06
8.693483891e-06
9.996721326e-06
9.799655227e-06
9.521553642e-06
8.886985783e-06
1.157412454e-05
1.125199975e-05
9.366985578e-06
9.794792571e-06
1.00429814e-05
9.755702398e-06
9.383501956e-06
9.519875306e-06
1.078348334e-05
9.232800586e-06
9.128960164e-06
8.893817325e-06
1.029221062e-05
9.029011683e-06
9.946466888e-06
1.425394746e-05
1.152730599e-05
1.211470182e-05
1.099837648e-05
1.132942545e-05
1.067606184e-05
1.030759285e-05
1.106440216e-05
1.06243946e-05
1.008515056e-05
9.260238786e-06
1.185531012e-05
9.794724147e-06
1.020175795e-05
8.00874029e-06
7.918208335e-06
6.589148186e-06
7.005369505e-06
8.269151135e-06
6.232831732e-06
1.030352282e-05
9.789738581e-06
6.951563649e-06
7.557577309e-06
7.581961203e-06
1.032949615e-05
7.516346743e-06
8.360982474e-06
8.497481732e-06
7.652917712e-06
7.550559497e-06
7.776529514e-06
1.018413646e-05
9.188513359e-06
8.301436139e-06
1.060424014e-05
8.416812807e-06
9.027288779e-06
7.924054654e-06
7.235594762e-06
7.449653142e-06
8.290508052e-06
9.116139167e-06
8.847103799e-06
8.340368348e-06
8.677329322e-06
8.697898303e-06
8.628946722e-06
8.433932046e-06
8.604255406e-06
8.636357513e-06
8.664915092e-06
8.199597302e-06
7.620216451e-06
8.517701539e-06
8.394462314e-06
8.20447716e-06
7.732936629e-06
9.355380377e-06
9.149429316e-06
7.833221159e-06
8.11061711e-06
8.276281781e-06
8.094979985e-06
7.835970291e-06
7.922634911e-06
8.85210234e-06
9.544524343e-06
7.723116673e-06
7.648545086e-06
7.476306095e-06
8.678350375e-06
7.568566429e-06
8.457183272e-06
1.146862175e-05
9.586572895e-06
9.955003493e-06
9.214402019e-06
9.432205763e-06
8.968505837e-06
8.74150409e-06
9.245861353e-06
8.97134512e-06
8.586327856e-06
8.007360009e-06
9.547040685e-06
8.115422029e-06
8.373277291e-06
6.63914348e-06
6.575479592e-06
5.611635553e-06
5.760388204e-06
6.85103756e-06
5.457323457e-06
8.684595678e-06
8.066573496e-06
6.132590912e-06
6.463378615e-06
6.402199331e-06
8.608898091e-06
6.669861513e-06
7.19208346e-06
7.126872939e-06
6.501021582e-06
6.298123854e-06
6.471505761e-06
8.456579397e-06
7.921104765e-06
7.333499332e-06
8.718313904e-06
7.193239161e-06
7.572304779e-06
6.819753055e-06
6.360374121e-06
6.557999562e-06
7.073955376e-06
7.641677531e-06
7.464366034e-06
7.136834217e-06
7.334424516e-06
7.360818694e-06
7.315674026e-06
7.196480404e-06
7.293199925e-06
7.306032713e-06
7.33415619e-06
7.024620795e-06
6.616673998e-06
7.234000813e-06
7.160679951e-06
7.031524658e-06
6.675644069e-06
7.591284485e-06
7.46428555e-06
6.544494313e-06
6.719042126e-06
6.825427833e-06
6.715739136e-06
6.538508072e-06
6.590504957e-06
7.684384906e-06
8.149559065e-06
6.455285633e-06
6.403896645e-06
6.281242871e-06
7.312172402e-06
6.34172031e-06
7.177342126e-06
9.273643545e-06
7.975584669e-06
8.197371386e-06
7.713605681e-06
7.851602144e-06
7.527503512e-06
7.397022748e-06
7.724645707e-06
7.561615984e-06
7.286667562e-06
6.878260972e-06
7.722109871e-06
6.726291478e-06
6.883592604e-06
5.49960863e-06
5.45538507e-06
4.762897107e-06
4.74300846e-06
5.675046516e-06
4.738499273e-06
7.308747422e-06
6.658165227e-06
5.354361817e-06
5.505307052e-06
5.392091271e-06
7.183030268e-06
5.853971159e-06
6.160623108e-06
5.965987187e-06
5.504742776e-06
5.246340382e-06
5.379447025e-06
7.034608129e-06
6.799601585e-06
6.417994163e-06
7.1874913e-06
6.129873668e-06
6.350780053e-06
5.847232699e-06
5.546672746e-06
5.725493242e-06
6.022104411e-06
6.399419703e-06
6.286971643e-06
6.086185443e-06
6.188967554e-06
6.215679773e-06
6.186754494e-06
6.118225446e-06
6.167057112e-06
6.168351079e-06
6.194393869e-06
5.991949177e-06
5.703464842e-06
6.127619344e-06
6.087646594e-06
6.000373677e-06
5.727332422e-06
6.180542186e-06
6.106832626e-06
5.463591368e-06
5.568312739e-06
5.632397442e-06
5.570657405e-06
5.452335093e-06
5.480393728e-06
6.631129872e-06
6.941267815e-06
5.392136573e-06
5.358803037e-06
5.274774509e-06
6.157296414e-06
5.311916171e-06
6.081712909e-06
7.532056499e-06
6.63740838e-06
6.762050379e-06
6.452969944e-06
6.535123133e-06
6.313484409e-06
6.248020461e-06
6.452627007e-06
6.363824832e-06
6.16754256e-06
5.877573128e-06
6.270092125e-06
5.576499637e-06
5.66662729e-06
4.552842074e-06
4.522657845e-06
4.031419414e-06
3.90971685e-06
4.700180778e-06
4.087552669e-06
6.143065951e-06
5.50369312e-06
4.637745985e-06
4.674016843e-06
4.53186592e-06
5.999099247e-06
5.094651745e-06
5.259191821e-06
4.986467274e-06
4.64900876e-06
4.365380567e-06
4.467568766e-06
5.860700148e-06
5.816898004e-06
5.575984301e-06
5.939544286e-06
5.211432355e-06
5.325577317e-06
4.998051933e-06
4.806877745e-06
4.966323798e-06
5.117008809e-06
5.354779697e-06
5.28785337e-06
5.175848888e-06
5.215207859e-06
5.239314603e-06
5.221358881e-06
5.186209558e-06
5.20456244e-06
5.199341741e-06
5.222523898e-06
5.093286254e-06
4.888161947e-06
5.179320013e-06
5.161261671e-06
5.102734371e-06
4.889710498e-06
5.046540337e-06
5.008434856e-06
4.558320692e-06
4.616109546e-06
4.650301806e-06
4.620244035e-06
4.544158467e-06
4.555918963e-06
5.695183023e-06
5.900120783e-06
4.501708278e-06
4.482191998e-06
4.427874261e-06
5.182181098e-06
4.44806732e-06
5.146700438e-06
6.141481684e-06
5.525214042e-06
5.58645603e-06
5.39539455e-06
5.438870628e-06
5.29210172e-06
5.26965285e-06
5.389320234e-06
5.349139251e-06
5.209154697e-06
5.001590245e-06
5.108118892e-06
4.62432871e-06
4.670141822e-06
3.767148157e-06
3.74706868e-06
3.404660106e-06
3.225875183e-06
3.892277377e-06
3.507828712e-06
5.157905652e-06
4.555020139e-06
3.99203113e-06
3.957799095e-06
3.802394176e-06
5.014405374e-06
4.404633418e-06
4.477275166e-06
4.162495859e-06
3.917986199e-06
3.629065849e-06
3.707473082e-06
4.889079238e-06
4.962344215e-06
4.816644081e-06
4.918316906e-06
4.422050809e-06
4.465368104e-06
4.261506312e-06
4.145033156e-06
4.28564255e-06
4.341192777e-06
4.477680305e-06
4.442365035e-06
4.39172348e-06
4.389663324e-06
4.409837126e-06
4.39923225e-06
4.385644468e-06
4.385211467e-06
4.37668074e-06
4.396751737e-06
4.317192569e-06
4.170347263e-06
4.370086503e-06
4.366094262e-06
4.327218718e-06
4.158268036e-06
4.13082673e-06
4.116153622e-06
3.801053452e-06
3.827740992e-06
3.841102605e-06
3.831586899e-06
3.785576149e-06
3.786467574e-06
4.87273481e-06
5.006743571e-06
3.756684311e-06
3.747540383e-06
3.715758251e-06
4.359644194e-06
3.723819655e-06
4.350789377e-06
5.02477941e-06
4.600399093e-06
4.621130932e-06
4.509088926e-06
4.526166592e-06
4.433765628e-06
4.439037617e-06
4.500712465e-06
4.491648396e-06
4.392003094e-06
4.241933804e-06
4.173468029e-06
3.835481817e-06
3.852583653e-06
3.115742281e-06
3.102898087e-06
2.870102159e-06
2.663754989e-06
3.22289954e-06
2.997886475e-06
4.327000249e-06
3.773802113e-06
3.419246611e-06
3.344138664e-06
3.185905575e-06
4.194245203e-06
3.788195067e-06
3.803013614e-06
3.471075657e-06
3.296199644e-06
3.014706683e-06
3.074796821e-06
4.083092525e-06
4.223669239e-06
4.141631135e-06
4.079819738e-06
3.746267379e-06
3.743755161e-06
3.626036109e-06
3.560007548e-06
3.682956698e-06
3.678268983e-06
3.742185889e-06
3.728494326e-06
3.719472678e-06
3.691326289e-06
3.70719517e-06
3.701454028e-06
3.701400049e-06
3.689954681e-06
3.680107653e-06
3.697127112e-06
3.650951488e-06
3.544957121e-06
3.681964294e-06
3.686689519e-06
3.661186179e-06
3.525099247e-06
3.388423389e-06
3.388827439e-06
3.168215696e-06
3.174711101e-06
3.173851012e-06
3.177279795e-06
3.152472076e-06
3.146335511e-06
4.156203579e-06
4.242757644e-06
3.133832187e-06
3.13230141e-06
3.117334089e-06
3.666368511e-06
3.11688323e-06
3.674695647e-06
4.123354401e-06
3.831086826e-06
3.826728983e-06
3.766952983e-06
3.766391225e-06
3.713122867e-06
3.735552959e-06
3.75826268e-06
3.768430298e-06
3.697716957e-06
3.587920408e-06
3.418245833e-06
3.181714487e-06
3.180700627e-06
2.415864025e-06
2.66840489e-06
2.553530407e-06
3.627360805e-06
3.129313635e-06
2.917055353e-06
2.820665724e-06
2.666330528e-06
3.510290366e-06
3.244405725e-06
3.224309192e-06
2.892041306e-06
2.769160545e-06
3.413214416e-06
3.588202429e-06
3.548044193e-06
3.389346086e-06
3.169580829e-06
3.138517746e-06
3.080096875e-06
3.047620888e-06
3.154415906e-06
3.113253847e-06
3.126079226e-06