/*--------------------------------*- C++ -*----------------------------------*\
  =========                 |
  \\      /  F ield         | OpenFOAM: The Open Source CFD Toolbox
   \\    /   O peration     | Website:  https://openfoam.org
    \\  /    A nd           | Version:  8
     \\/     M anipulation  |
\*---------------------------------------------------------------------------*/






FoamFile
{
    version     2.0;
    format      ascii;
    class       volSymmTensorField;
    location    "0";
    object      TauDDES;
}
// * * * * * * * * * * * * * * * * * * * * * * * * * * * * * * * * * * * * * //

dimensions      [0 2 -2 0 0 0 0];


internalField   nonuniform List<symmTensor>
12225
(
( 4.329000149e-05 -1.632608837e-05 7.306307737e-08 3.373256186e-05 -4.750335449e-07 3.989681136e-05 )
( 3.955415013e-05 -1.426708059e-05 9.634540987e-08 3.155356535e-05 -3.077453812e-07 3.754929276e-05 )
( 4.318543142e-05 -1.625262303e-05 2.10545295e-07 3.380053022e-05 -3.580858845e-07 4.038096813e-05 )
( 3.772923083e-05 -1.317594433e-05 1.097919977e-07 3.033327994e-05 -2.062662219e-07 3.638628914e-05 )
( 3.954407293e-05 -1.423686172e-05 2.678247597e-07 3.157732135e-05 -3.768586225e-07 3.800648847e-05 )
( 4.306107076e-05 -1.622103628e-05 2.266829853e-07 3.376839959e-05 -2.813821993e-07 4.075503603e-05 )
( 3.458980791e-05 -1.107543812e-05 1.152440916e-07 2.780765681e-05 -1.91490912e-08 3.478566214e-05 )
( 3.77579745e-05 -1.31438992e-05 3.273087259e-07 3.031223423e-05 -3.243590072e-07 3.687632852e-05 )
( 3.966173244e-05 -1.434623573e-05 3.762215499e-07 3.165338057e-05 -3.618642666e-07 3.871310037e-05 )
( 4.301077206e-05 -1.628650898e-05 2.659208462e-07 3.373333311e-05 -2.732115263e-07 4.098711725e-05 )
( 3.161683708e-05 -9.013355339e-06 -8.899817061e-08 2.487009442e-05 9.048521576e-08 3.389766789e-05 )
( 3.471462333e-05 -1.110678386e-05 3.568380009e-07 2.777147711e-05 -2.058145867e-07 3.562437996e-05 )
( 3.788149115e-05 -1.32437408e-05 4.577037771e-07 3.037726856e-05 -3.374581183e-07 3.753260535e-05 )
( 3.981615737e-05 -1.439253811e-05 4.179098028e-07 3.160406777e-05 -3.869803038e-07 3.900224328e-05 )
( 4.305848051e-05 -1.648392026e-05 3.128939738e-07 3.372107312e-05 -2.486792994e-07 4.129010267e-05 )
( 2.884332935e-05 -7.052574801e-06 -2.468123625e-07 2.131182009e-05 1.562643348e-07 3.367274621e-05 )
( 3.179893974e-05 -9.055030205e-06 -4.25280291e-08 2.481916636e-05 -8.242347249e-09 3.437031046e-05 )
( 3.478298459e-05 -1.115964005e-05 4.234357789e-07 2.784479511e-05 -2.599133495e-07 3.591334098e-05 )
( 3.822175859e-05 -1.333711771e-05 5.420073421e-07 3.036832459e-05 -4.514818386e-07 3.800007835e-05 )
( 4.005583105e-05 -1.44804153e-05 4.266342728e-07 3.157808533e-05 -3.692425423e-07 3.918874427e-05 )
( 4.313650425e-05 -1.666591925e-05 3.256505465e-07 3.37266938e-05 -2.388736959e-07 4.136000643e-05 )
( 2.762123768e-05 -6.088912869e-06 -2.207345631e-07 1.921506373e-05 1.862571395e-07 3.388022742e-05 )
( 2.918288919e-05 -7.116935649e-06 -2.205903797e-07 2.131219298e-05 1.393381837e-07 3.391589416e-05 )
( 2.781546937e-05 -6.123067578e-06 -2.315257603e-07 1.924160097e-05 1.876985607e-07 3.396812826e-05 )
( 3.193604789e-05 -9.110338397e-06 1.173987982e-07 2.492006752e-05 -1.016230016e-07 3.471968739e-05 )
( 3.504259439e-05 -1.123044876e-05 5.510606229e-07 2.788672646e-05 -4.070495265e-07 3.620788993e-05 )
( 3.853714588e-05 -1.336214336e-05 5.335816695e-07 3.033426401e-05 -4.389287653e-07 3.80833917e-05 )
( 4.02968144e-05 -1.45723925e-05 4.209525741e-07 3.168264448e-05 -3.034582505e-07 3.925235069e-05 )
( 4.317033381e-05 -1.6753198e-05 3.678995597e-07 3.387661855e-05 -1.689421936e-07 4.138106669e-05 )
( 2.591859084e-05 -4.345599791e-06 -1.614317e-07 1.484408585e-05 2.190704294e-07 3.457204002e-05 )
( 2.946262612e-05 -7.12585188e-06 -8.35972358e-08 2.142001722e-05 9.269428602e-08 3.418276538e-05 )
( 2.821404451e-05 -6.142285656e-06 -2.007014928e-07 1.930826693e-05 2.01045097e-07 3.415938409e-05 )
( 2.801492519e-05 -6.137917353e-06 -2.253492397e-07 1.926269761e-05 1.990220824e-07 3.406007454e-05 )
( 2.611587843e-05 -4.345582511e-06 -1.998817396e-07 1.488406178e-05 2.261169527e-07 3.463340545e-05 )
( 3.218470374e-05 -9.131131264e-06 3.332789333e-07 2.495265107e-05 -2.526415983e-07 3.494352131e-05 )
( 3.562021811e-05 -1.118821274e-05 6.692642955e-07 2.774767927e-05 -4.784224075e-07 3.620882489e-05 )
( 3.882826786e-05 -1.338538914e-05 5.084368695e-07 3.044470577e-05 -3.271912874e-07 3.811514762e-05 )
( 4.047658877e-05 -1.465263449e-05 4.745217552e-07 3.188822302e-05 -1.540430361e-07 3.929384184e-05 )
( 4.316972627e-05 -1.675148087e-05 4.654161785e-07 3.403522351e-05 -8.086069414e-08 4.115325646e-05 )
( 2.533082261e-05 -3.390181973e-06 -2.136280273e-07 1.211766084e-05 2.168280844e-07 3.493410622e-05 )
( 2.533601582e-05 -3.38996756e-06 -2.151243024e-07 1.211881863e-05 2.167296458e-07 3.493609984e-05 )
( 2.839391345e-05 -6.149064575e-06 -1.593783452e-07 1.938195055e-05 1.663836002e-07 3.425620525e-05 )
( 2.984451567e-05 -7.160142559e-06 1.533678073e-07 2.133211819e-05 -1.426521976e-07 3.445064067e-05 )
( 2.855786806e-05 -6.169300377e-06 -1.076312799e-07 1.943860843e-05 9.678823432e-08 3.432904487e-05 )
( 2.65809922e-05 -4.34528647e-06 -2.747178485e-07 1.497732592e-05 2.240829247e-07 3.469244984e-05 )
( 2.634107841e-05 -4.34020194e-06 -2.406627289e-07 1.492524643e-05 2.310903255e-07 3.467472925e-05 )
( 2.552114347e-05 -3.374693961e-06 -2.755358537e-07 1.21568919e-05 2.202412759e-07 3.497024591e-05 )
( 2.551481884e-05 -3.375207825e-06 -2.737179443e-07 1.215587872e-05 2.202977356e-07 3.496988211e-05 )
( 3.267786451e-05 -9.060624507e-06 5.65946948e-07 2.468640014e-05 -4.314781563e-07 3.500270759e-05 )
( 3.594059672e-05 -1.114489078e-05 6.576223086e-07 2.781333751e-05 -3.685836987e-07 3.611237116e-05 )
( 3.90314417e-05 -1.345866804e-05 5.514588679e-07 3.064609336e-05 -1.62117459e-07 3.810647468e-05 )
( 4.051782162e-05 -1.467469156e-05 5.287829481e-07 3.207001282e-05 -4.641806584e-08 3.903110701e-05 )
( 4.326776616e-05 -1.672423787e-05 5.108760774e-07 3.410288264e-05 -7.967759785e-08 4.061225263e-05 )
( 2.509088517e-05 -2.756153208e-06 -2.610940157e-07 1.01589203e-05 2.081429216e-07 3.512313197e-05 )
( 2.514223524e-05 -2.748023235e-06 -2.936876058e-07 1.01427413e-05 2.049805516e-07 3.5145109e-05 )
( 2.680989928e-05 -4.370256647e-06 -2.952900786e-07 1.504503598e-05 1.949533726e-07 3.467805072e-05 )
( 3.011501394e-05 -7.15175338e-06 2.587959216e-07 2.111952745e-05 -3.424216573e-07 3.442076923e-05 )
( 2.883446905e-05 -6.213450433e-06 -3.898437129e-09 1.928756683e-05 -8.972663323e-08 3.437108171e-05 )
( 2.869880882e-05 -6.19458342e-06 -5.451811802e-08 1.9403431e-05 7.419536097e-09 3.436531188e-05 )
( 2.701113044e-05 -4.4142771e-06 -3.031430253e-07 1.508980404e-05 1.362360535e-07 3.463356188e-05 )
( 2.597875937e-05 -3.367411182e-06 -3.819297945e-07 1.223774052e-05 1.990980252e-07 3.491830648e-05 )
( 2.597152525e-05 -3.36680273e-06 -3.808530096e-07 1.223609615e-05 1.99611577e-07 3.491985262e-05 )
( 2.572836638e-05 -3.355051831e-06 -3.345795108e-07 1.217909812e-05 2.134354133e-07 3.496360659e-05 )
( 2.573555321e-05 -3.35499476e-06 -3.362379175e-07 1.218064608e-05 2.131564401e-07 3.496293721e-05 )
( 2.531723112e-05 -2.720506473e-06 -3.756255751e-07 1.017088834e-05 2.063511602e-07 3.514327909e-05 )
( 2.525505988e-05 -2.737843033e-06 -3.371463606e-07 1.01960768e-05 2.091832414e-07 3.515660501e-05 )
( 3.294839553e-05 -9.012571354e-06 5.529047939e-07 2.470374238e-05 -4.329328647e-07 3.487403956e-05 )
( 3.61292914e-05 -1.120640627e-05 5.854843721e-07 2.800030779e-05 -2.111352302e-07 3.604204176e-05 )
( 3.90876412e-05 -1.35432465e-05 5.501643727e-07 3.086906872e-05 -6.78985117e-08 3.782499334e-05 )
( 4.057365368e-05 -1.466810772e-05 5.589325269e-07 3.216152982e-05 -9.425689029e-08 3.845346873e-05 )
( 4.350598465e-05 -1.669129415e-05 5.017903391e-07 3.403807568e-05 -1.226985944e-07 3.997865133e-05 )
( 2.504321128e-05 -2.131869678e-06 -3.329475362e-07 8.057873856e-06 1.827233973e-07 3.520137398e-05 )
( 2.510179911e-05 -2.135837121e-06 -3.698946784e-07 8.077286111e-06 1.797233722e-07 3.522045154e-05 )
( 2.620625855e-05 -3.398999297e-06 -4.067725285e-07 1.229717145e-05 1.72562423e-07 3.485465277e-05 )
( 2.621293424e-05 -3.400410151e-06 -4.07371715e-07 1.229897043e-05 1.714528111e-07 3.485246634e-05 )
( 2.896260048e-05 -6.216595921e-06 4.152251165e-08 1.915630492e-05 -1.973310901e-07 3.435583858e-05 )
( 3.025580918e-05 -7.117791483e-06 2.693454348e-07 2.112219954e-05 -4.311033877e-07 3.435857798e-05 )
( 2.908991883e-05 -6.207482329e-06 6.550350662e-08 1.909702587e-05 -3.179076771e-07 3.431858931e-05 )
( 2.735574162e-05 -4.504972367e-06 -3.269146873e-07 1.496942241e-05 -6.330291313e-08 3.452478632e-05 )
( 2.71895733e-05 -4.464469384e-06 -3.119351675e-07 1.506473018e-05 4.41003003e-08 3.457770435e-05 )
( 2.642908294e-05 -3.453548743e-06 -4.275964898e-07 1.233593503e-05 1.14789998e-07 3.478783037e-05 )
( 2.642325308e-05 -3.451630619e-06 -4.268853786e-07 1.233520197e-05 1.170368691e-07 3.478969302e-05 )
( 2.576512452e-05 -2.715891242e-06 -4.915397653e-07 1.024605172e-05 1.745987106e-07 3.50045193e-05 )
( 2.567557749e-05 -2.708914053e-06 -4.755025316e-07 1.025662186e-05 1.843262112e-07 3.505070345e-05 )
( 2.544504241e-05 -2.704783128e-06 -4.180430153e-07 1.020208128e-05 2.023986667e-07 3.512601324e-05 )
( 2.552476508e-05 -2.701227459e-06 -4.49836449e-07 1.019138926e-05 1.927089812e-07 3.509090675e-05 )
( 2.526052413e-05 -2.110859896e-06 -4.698341343e-07 8.109736882e-06 1.780901471e-07 3.520025712e-05 )
( 2.519057307e-05 -2.11673364e-06 -4.236214295e-07 8.096590136e-06 1.790421749e-07 3.52207062e-05 )
( 3.314503556e-05 -9.058056094e-06 3.893561029e-07 2.49020195e-05 -3.310140073e-07 3.47390669e-05 )
( 3.623844896e-05 -1.137297932e-05 4.815646548e-07 2.827368007e-05 -2.002171584e-07 3.590025153e-05 )
( 3.914024273e-05 -1.359370344e-05 5.323561254e-07 3.097562876e-05 -1.068996127e-07 3.73353505e-05 )
( 4.074113531e-05 -1.463900662e-05 5.949577258e-07 3.208909038e-05 -1.711202913e-07 3.78485347e-05 )
( 4.379777965e-05 -1.673959014e-05 4.376575191e-07 3.388258483e-05 -1.574493353e-07 3.934873894e-05 )
( 2.501687777e-05 -1.729258543e-06 -3.797257762e-07 6.604087503e-06 1.646643568e-07 3.502212712e-05 )
( 2.505890734e-05 -1.727574045e-06 -4.173379011e-07 6.574055988e-06 1.554553535e-07 3.504241977e-05 )
( 2.590894292e-05 -2.737499472e-06 -5.033190291e-07 1.031013653e-05 1.635346223e-07 3.495805868e-05 )
( 2.599867548e-05 -2.757416269e-06 -5.134313028e-07 1.029496161e-05 1.453437335e-07 3.491735697e-05 )
( 2.749775376e-05 -4.516022273e-06 -3.4196961e-07 1.487168174e-05 -1.687738234e-07 3.449173528e-05 )
( 3.061059033e-05 -7.051042303e-06 1.678624955e-07 2.133733869e-05 -4.171029673e-07 3.42259882e-05 )
( 2.933271389e-05 -6.128504992e-06 6.617840853e-08 1.917209192e-05 -4.383762757e-07 3.423712042e-05 )
( 2.921336818e-05 -6.176158877e-06 7.311238903e-08 1.911940126e-05 -4.09223702e-07 3.427879346e-05 )
( 2.762193981e-05 -4.503770469e-06 -3.546197718e-07 1.484633594e-05 -2.6850023e-07 3.446481787e-05 )
( 2.680370562e-05 -3.57872068e-06 -4.835324035e-07 1.224110565e-05 -7.788197109e-08 3.469231524e-05 )
( 2.679862519e-05 -3.577639973e-06 -4.824854045e-07 1.224391053e-05 -7.477188291e-08 3.469336662e-05 )
( 2.661445978e-05 -3.520277005e-06 -4.517302727e-07 1.231933129e-05 3.238926283e-08 3.473495235e-05 )
( 2.662008228e-05 -3.522367024e-06 -4.529073578e-07 1.23176369e-05 2.937093413e-08 3.473330435e-05 )
( 2.621219028e-05 -2.821321232e-06 -5.301209285e-07 1.0329004e-05 8.763966264e-08 3.48575013e-05 )
( 2.613079232e-05 -2.793434305e-06 -5.2043913e-07 1.035670903e-05 1.168484545e-07 3.488063157e-05 )
( 2.565214163e-05 -2.081882485e-06 -6.117336397e-07 8.144774256e-06 1.563938383e-07 3.500620369e-05 )
( 2.556573963e-05 -2.073144742e-06 -5.955974984e-07 8.131194591e-06 1.597910568e-07 3.505419591e-05 )
( 2.536052489e-05 -2.080990271e-06 -5.259645377e-07 8.100317245e-06 1.73701423e-07 3.516158176e-05 )
( 2.543893243e-05 -2.080937747e-06 -5.623826382e-07 8.117081961e-06 1.690675617e-07 3.511726391e-05 )
( 2.52017544e-05 -1.704408533e-06 -5.238448466e-07 6.600522283e-06 1.514450219e-07 3.501202445e-05 )
( 2.514854168e-05 -1.71594445e-06 -4.684452506e-07 6.619934084e-06 1.540519037e-07 3.50435439e-05 )
( 3.329881656e-05 -9.236377991e-06 2.394499461e-07 2.516739733e-05 -3.159913433e-07 3.46519264e-05 )
( 3.637052214e-05 -1.15357534e-05 4.007752068e-07 2.83783229e-05 -2.048767129e-07 3.564658255e-05 )
( 3.929054583e-05 -1.359118141e-05 5.45713533e-07 3.089309394e-05 -1.691978184e-07 3.687927529e-05 )
( 4.102843741e-05 -1.468349546e-05 6.150804097e-07 3.188570918e-05 -2.745402128e-07 3.730462049e-05 )
( 4.400786202e-05 -1.68789029e-05 3.199086507e-07 3.371753701e-05 -1.562544867e-07 3.887173807e-05 )
( 2.491450141e-05 -1.534215698e-06 -4.149052586e-07 5.853666153e-06 1.501352642e-07 3.475410995e-05 )
( 2.496468005e-05 -1.535421234e-06 -4.473867534e-07 5.853416496e-06 1.402173524e-07 3.4784749e-05 )
( 2.578277054e-05 -2.099379572e-06 -6.266888022e-07 8.169206922e-06 1.422723983e-07 3.494908015e-05 )
( 2.586015762e-05 -2.130799203e-06 -6.326212088e-07 8.195520422e-06 1.301200143e-07 3.491273674e-05 )
( 2.695881449e-05 -3.591684163e-06 -5.18171646e-07 1.216874898e-05 -1.649218007e-07 3.467038914e-05 )
( 2.69629345e-05 -3.591391533e-06 -5.190865977e-07 1.21669209e-05 -1.672536172e-07 3.467006172e-05 )
( 2.946617315e-05 -6.092121112e-06 5.000029546e-08 1.923861055e-05 -4.381404608e-07 3.42220701e-05 )
( 3.075578934e-05 -7.216718586e-06 6.5226331e-08 2.154645699e-05 -3.5914195e-07 3.429784192e-05 )
( 2.958961704e-05 -6.088801001e-06 2.736003424e-08 1.931251427e-05 -4.298593126e-07 3.427141201e-05 )
( 2.78699772e-05 -4.422819529e-06 -3.383488547e-07 1.494872959e-05 -3.674950619e-07 3.44953005e-05 )
( 2.774506538e-05 -4.47388129e-06 -3.509275075e-07 1.488889302e-05 -3.422823625e-07 3.446466144e-05 )
( 2.709728142e-05 -3.566183523e-06 -5.430546253e-07 1.21449566e-05 -2.33040538e-07 3.466016642e-05 )
( 2.709366345e-05 -3.567166914e-06 -5.426094276e-07 1.214443091e-05 -2.312967951e-07 3.466014095e-05 )
( 2.660827158e-05 -2.960689244e-06 -5.811411938e-07 1.023785353e-05 -9.837090431e-08 3.479306542e-05 )
( 2.653139018e-05 -2.943125082e-06 -5.676440651e-07 1.029477335e-05 -5.298800687e-08 3.480345913e-05 )
( 2.632869655e-05 -2.866584055e-06 -5.416866315e-07 1.035572768e-05 4.403301546e-08 3.483868568e-05 )
( 2.640563252e-05 -2.900902018e-06 -5.537552852e-07 1.030315889e-05 5.806907843e-09 3.482169996e-05 )
( 2.606014823e-05 -2.20531274e-06 -6.429332871e-07 8.226921636e-06 8.286830422e-08 3.484499757e-05 )
( 2.598360334e-05 -2.164936859e-06 -6.410789979e-07 8.209885891e-06 1.024353438e-07 3.486515925e-05 )
( 2.554536513e-05 -1.6720752e-06 -6.836045259e-07 6.630333701e-06 1.347424643e-07 3.478578947e-05 )
( 2.547459007e-05 -1.666489425e-06 -6.599431117e-07 6.656171081e-06 1.413373951e-07 3.484757326e-05 )
( 2.530286292e-05 -1.683223218e-06 -5.774226679e-07 6.634925739e-06 1.528367193e-07 3.497039143e-05 )
( 2.536154716e-05 -1.673878955e-06 -6.265876209e-07 6.607872365e-06 1.455419465e-07 3.491086682e-05 )
( 2.509704973e-05 -1.513395546e-06 -5.463715524e-07 5.869190318e-06 1.348774248e-07 3.474522237e-05 )
( 2.503953147e-05 -1.523888159e-06 -4.939149676e-07 5.875188435e-06 1.351145329e-07 3.477957944e-05 )
( 3.347102393e-05 -9.445628166e-06 2.100696861e-07 2.527217111e-05 -2.61489788e-07 3.458741048e-05 )
( 3.656862464e-05 -1.160698048e-05 3.87640597e-07 2.829487676e-05 -1.668619802e-07 3.544368519e-05 )
( 3.954473505e-05 -1.361298018e-05 5.967167453e-07 3.064607154e-05 -2.78743272e-07 3.64805237e-05 )
( 4.128282308e-05 -1.479657294e-05 5.434391142e-07 3.171816206e-05 -3.089766665e-07 3.692955943e-05 )
( 4.40323347e-05 -1.702791451e-05 3.093336147e-07 3.363904761e-05 -2.461651434e-07 3.849669156e-05 )
( 2.453532579e-05 -1.153946528e-06 -4.576844788e-07 4.491786967e-06 1.264388061e-07 3.378027395e-05 )
( 2.458296694e-05 -1.15954424e-06 -4.890914624e-07 4.481501946e-06 1.149041395e-07 3.38031823e-05 )
( 2.566363401e-05 -1.689539886e-06 -7.01578756e-07 6.681588275e-06 1.25796646e-07 3.473824472e-05 )
( 2.573345409e-05 -1.718551971e-06 -7.130543622e-07 6.660651252e-06 1.119836384e-07 3.469558578e-05 )
( 2.671307629e-05 -2.965224212e-06 -5.956823088e-07 1.022955621e-05 -1.459540613e-07 3.479164297e-05 )
( 2.677134762e-05 -2.957206789e-06 -6.142021221e-07 1.017875275e-05 -1.695965608e-07 3.479016959e-05 )
( 2.80318236e-05 -4.37843164e-06 -3.142876039e-07 1.499653354e-05 -3.631637071e-07 3.457263665e-05 )
( 3.094422573e-05 -7.381146588e-06 3.876749233e-08 2.168126593e-05 -2.59129223e-07 3.439059583e-05 )
( 2.973988558e-05 -6.223396667e-06 -1.109944137e-08 1.94737313e-05 -3.752377609e-07 3.441702938e-05 )
( 2.966928878e-05 -6.13486327e-06 4.705956513e-09 1.938734022e-05 -4.094940209e-07 3.434773316e-05 )
( 2.817829591e-05 -4.359628747e-06 -2.738276237e-07 1.502455143e-05 -3.468516923e-07 3.470858792e-05 )
( 2.736115857e-05 -3.480574378e-06 -5.152469384e-07 1.225064534e-05 -3.03570431e-07 3.473690958e-05 )
( 2.735650742e-05 -3.482166676e-06 -5.163045671e-07 1.224896914e-05 -3.034035387e-07 3.473456309e-05 )
( 2.72210018e-05 -3.528959041e-06 -5.439605957e-07 1.218680245e-05 -2.808708643e-07 3.467734496e-05 )
( 2.722477439e-05 -3.527470426e-06 -5.435862249e-07 1.21885605e-05 -2.819873828e-07 3.467841088e-05 )
( 2.690967085e-05 -2.918860446e-06 -6.411399909e-07 1.017393788e-05 -2.143682281e-07 3.479060979e-05 )
( 2.68612639e-05 -2.938675379e-06 -6.314530197e-07 1.019815772e-05 -1.973837556e-07 3.478669532e-05 )
( 2.648467489e-05 -2.336730631e-06 -6.597184665e-07 8.149960195e-06 -7.514674394e-08 3.48112444e-05 )
( 2.639682862e-05 -2.317954113e-06 -6.59683792e-07 8.16902957e-06 -3.750632516e-08 3.48082649e-05 )
( 2.617983046e-05 -2.245353471e-06 -6.506527939e-07 8.210217857e-06 4.342593485e-08 3.482070315e-05 )
( 2.626429159e-05 -2.28558838e-06 -6.502199881e-07 8.199029253e-06 1.457611631e-08 3.481113527e-05 )
( 2.591723387e-05 -1.794225909e-06 -7.204521353e-07 6.685421795e-06 7.410644542e-08 3.46260349e-05 )
( 2.584262256e-05 -1.756162874e-06 -7.16652778e-07 6.720521014e-06 9.356477193e-08 3.465786358e-05 )
( 2.541672802e-05 -1.482718972e-06 -7.069897379e-07 5.908224011e-06 1.261532248e-07 3.449382712e-05 )
( 2.534021587e-05 -1.477435035e-06 -6.783740218e-07 5.913549558e-06 1.288828315e-07 3.455924161e-05 )
( 2.518246583e-05 -1.494187245e-06 -5.977934734e-07 5.890853572e-06 1.356897883e-07 3.469390867e-05 )
( 2.524681076e-05 -1.486613428e-06 -6.438634728e-07 5.887700354e-06 1.329280082e-07 3.462914174e-05 )
( 2.470404979e-05 -1.145911256e-06 -5.760884392e-07 4.493640063e-06 1.080165646e-07 3.375389861e-05 )
( 2.465319631e-05 -1.149500122e-06 -5.295523806e-07 4.502389402e-06 1.089911237e-07 3.379414557e-05 )
( 3.375079177e-05 -9.547651644e-06 2.356951825e-07 2.519582267e-05 -1.463115211e-07 3.470035881e-05 )
( 3.68305482e-05 -1.162994431e-05 4.662391007e-07 2.800516449e-05 -1.960751348e-07 3.53268224e-05 )
( 3.978556197e-05 -1.368938865e-05 5.98011809e-07 3.046782876e-05 -3.554361854e-07 3.614091838e-05 )
( 4.140143574e-05 -1.493052514e-05 3.987666446e-07 3.162915891e-05 -3.205897769e-07 3.662941162e-05 )
( 4.388170782e-05 -1.714260725e-05 4.191024914e-07 3.36209996e-05 -4.197922578e-07 3.827416003e-05 )
( 2.370529364e-05 -7.450877888e-07 -4.894401968e-07 3.030832431e-06 9.580833193e-08 3.197350088e-05 )
( 2.37495824e-05 -7.504290807e-07 -5.215154602e-07 3.027871571e-06 8.39164187e-08 3.199189814e-05 )
( 2.551731995e-05 -1.496095592e-06 -7.279061833e-07 5.933498414e-06 1.182146363e-07 3.444304457e-05 )
( 2.559188943e-05 -1.526531378e-06 -7.434190366e-07 5.9305371e-06 1.071212381e-07 3.440223736e-05 )
( 2.660560676e-05 -2.336171065e-06 -6.72330259e-07 8.124001397e-06 -1.231029643e-07 3.481599924e-05 )
( 2.667387162e-05 -2.332344366e-06 -6.797693572e-07 8.114252523e-06 -1.443283537e-07 3.482239481e-05 )
( 2.752159889e-05 -3.434538712e-06 -4.692948607e-07 1.229075133e-05 -2.918311566e-07 3.48445792e-05 )
( 2.752683758e-05 -3.433436177e-06 -4.676726917e-07 1.229149348e-05 -2.912061063e-07 3.484851186e-05 )
( 2.982997466e-05 -6.303835107e-06 -1.739172539e-08 1.956957567e-05 -3.239678392e-07 3.446706614e-05 )
( 3.12796401e-05 -7.447844837e-06 3.382469416e-08 2.164009675e-05 -1.565421144e-07 3.460140215e-05 )
( 2.994974966e-05 -6.356358881e-06 -1.858363419e-08 1.962580791e-05 -2.669050048e-07 3.452378951e-05 )
( 2.840120032e-05 -4.433859431e-06 -1.544151615e-07 1.511935443e-05 -3.434057021e-07 3.492525502e-05 )
( 2.829461664e-05 -4.386492947e-06 -2.184495145e-07 1.505588625e-05 -3.427248032e-07 3.484095214e-05 )
( 2.76886949e-05 -3.410603313e-06 -4.146383219e-07 1.229663576e-05 -2.717148959e-07 3.500623279e-05 )
( 2.768418199e-05 -3.410601721e-06 -4.166047916e-07 1.229668669e-05 -2.721293129e-07 3.500148523e-05 )
( 2.719195982e-05 -2.831719939e-06 -5.964614616e-07 1.027865801e-05 -2.570028528e-07 3.491059033e-05 )
( 2.714058974e-05 -2.851606496e-06 -6.200900771e-07 1.028830593e-05 -2.591281429e-07 3.485978596e-05 )
( 2.699199649e-05 -2.894950285e-06 -6.457054837e-07 1.022978813e-05 -2.336751805e-07 3.480417581e-05 )
( 2.704838698e-05 -2.87776561e-06 -6.383716027e-07 1.022251672e-05 -2.484060246e-07 3.482339162e-05 )
( 2.682299419e-05 -2.290993052e-06 -7.059529707e-07 8.11999962e-06 -1.856421648e-07 3.482399188e-05 )
( 2.676688746e-05 -2.305929911e-06 -6.94810069e-07 8.111415809e-06 -1.748379361e-07 3.481731255e-05 )
( 2.635890996e-05 -1.912255811e-06 -7.102897257e-07 6.637550996e-06 -6.481070614e-08 3.461009328e-05 )
( 2.626463538e-05 -1.898845198e-06 -7.113280276e-07 6.694720469e-06 -2.576321201e-08 3.459894651e-05 )
( 2.603790199e-05 -1.835850526e-06 -7.184993365e-07 6.720857982e-06 4.780952167e-08 3.460860898e-05 )
( 2.612564822e-05 -1.871773975e-06 -7.132800874e-07 6.675461918e-06 1.501780922e-08 3.459476284e-05 )
( 2.576726547e-05 -1.599157486e-06 -7.524856755e-07 5.948615581e-06 7.629343202e-08 3.433947859e-05 )
( 2.568841592e-05 -1.557887344e-06 -7.497866363e-07 5.957333087e-06 9.248529409e-08 3.436902625e-05 )
( 2.498544382e-05 -1.116421345e-06 -7.327008689e-07 4.531779268e-06 1.091621868e-07 3.350439147e-05 )
( 2.492337808e-05 -1.109252821e-06 -7.017726489e-07 4.540691407e-06 1.10944498e-07 3.356663728e-05 )
( 2.478202805e-05 -1.126893949e-06 -6.207647516e-07 4.517021807e-06 1.118038711e-07 3.369856859e-05 )
( 2.483824937e-05 -1.122118533e-06 -6.645889243e-07 4.514357443e-06 1.110061163e-07 3.363513315e-05 )
( 2.386085907e-05 -7.434597933e-07 -5.922810828e-07 3.033317171e-06 7.710950456e-08 3.19398896e-05 )
( 2.380993465e-05 -7.474313861e-07 -5.551775644e-07 3.036394219e-06 7.730990603e-08 3.197835758e-05 )
( 3.4097342e-05 -9.591491107e-06 3.116520588e-07 2.496248635e-05 -1.119206914e-07 3.47794703e-05 )
( 3.705880954e-05 -1.161499313e-05 5.896462199e-07 2.781810326e-05 -3.088633207e-07 3.512085095e-05 )
( 3.994086364e-05 -1.378604429e-05 4.8691237e-07 3.040075717e-05 -3.824419821e-07 3.587398169e-05 )
( 4.132806498e-05 -1.505432192e-05 3.119724283e-07 3.156427556e-05 -4.080648068e-07 3.649020437e-05 )
( 4.37752642e-05 -1.718568456e-05 4.834692504e-07 3.363569704e-05 -5.350208312e-07 3.818541882e-05 )
( 2.005014358e-05 -1.879221116e-07 -4.621651613e-07 1.093907485e-06 4.721926672e-08 2.579113061e-05 )
( 2.007762851e-05 -1.921868602e-07 -4.918248919e-07 1.092419325e-06 3.822483308e-08 2.579645297e-05 )
( 2.50703124e-05 -1.125709332e-06 -7.58549163e-07 4.552133305e-06 1.033761521e-07 3.345479126e-05 )
( 2.513157779e-05 -1.156096687e-06 -7.759865639e-07 4.543280738e-06 9.6004797e-08 3.341666888e-05 )
( 2.648763802e-05 -1.912074595e-06 -7.074456221e-07 6.662378382e-06 -1.086648638e-07 3.462266613e-05 )
( 2.656358811e-05 -1.904788519e-06 -7.111684681e-07 6.621252396e-06 -1.38917656e-07 3.462571476e-05 )
( 2.729664811e-05 -2.805294571e-06 -5.639279266e-07 1.033700937e-05 -2.463209796e-07 3.498003207e-05 )
( 2.735814269e-05 -2.789470955e-06 -5.355140047e-07 1.030992735e-05 -2.390763711e-07 3.50515038e-05 )
( 2.850849523e-05 -4.469874057e-06 -9.382962673e-08 1.520607202e-05 -3.17844183e-07 3.497544822e-05 )
( 3.169406409e-05 -7.466416264e-06 3.154698547e-08 2.146998304e-05 -1.194444224e-07 3.471147647e-05 )
( 3.029735126e-05 -6.396405297e-06 -3.623700096e-08 1.958787834e-05 -1.780509109e-07 3.468376599e-05 )
( 3.010610999e-05 -6.384754215e-06 -2.575230873e-08 1.962440729e-05 -2.098399392e-07 3.459905929e-05 )
( 2.864000089e-05 -4.490284027e-06 -5.022378957e-08 1.524446816e-05 -2.624112199e-07 3.499988452e-05 )
( 2.793855128e-05 -3.4494376e-06 -2.43337638e-07 1.23604259e-05 -2.899606955e-07 3.525203647e-05 )
( 2.793486237e-05 -3.448662483e-06 -2.464539364e-07 1.235811396e-05 -2.897013189e-07 3.524966451e-05 )
( 2.781156036e-05 -3.420406529e-06 -3.457024036e-07 1.230122962e-05 -2.761307201e-07 3.514535274e-05 )
( 2.781551848e-05 -3.421369456e-06 -3.430974402e-07 1.230216003e-05 -2.76561309e-07 3.514905256e-05 )
( 2.75114653e-05 -2.764366627e-06 -4.775610591e-07 1.029304076e-05 -2.209566077e-07 3.522361658e-05 )
( 2.746303289e-05 -2.775559324e-06 -5.024558618e-07 1.034960042e-05 -2.239406598e-07 3.514549462e-05 )
( 2.71152403e-05 -2.206648105e-06 -6.631921678e-07 8.198024261e-06 -2.083786228e-07 3.497109356e-05 )
( 2.705642692e-05 -2.219958787e-06 -6.846868246e-07 8.179282304e-06 -2.149818954e-07 3.491825555e-05 )
( 2.690545807e-05 -2.261353757e-06 -7.090142731e-07 8.137717487e-06 -2.012264986e-07 3.484182889e-05 )
( 2.697044329e-05 -2.246779331e-06 -7.106652333e-07 8.148751476e-06 -2.069944003e-07 3.486403148e-05 )
( 2.672051596e-05 -1.865038939e-06 -7.237907198e-07 6.633253179e-06 -1.767213433e-07 3.463296889e-05 )
( 2.666337605e-05 -1.885017127e-06 -7.176676036e-07 6.662768556e-06 -1.641535192e-07 3.462787208e-05 )
( 2.621477142e-05 -1.707233992e-06 -7.307627357e-07 5.906581919e-06 -5.193279407e-08 3.432515223e-05 )
( 2.610560296e-05 -1.691356147e-06 -7.377764746e-07 5.932276508e-06 -1.26130697e-08 3.430848665e-05 )
( 2.587712515e-05 -1.63472896e-06 -7.487651601e-07 5.961733677e-06 5.546746706e-08 3.431929508e-05 )
( 2.597713319e-05 -1.672731401e-06 -7.435950238e-07 5.939374205e-06 2.611156802e-08 3.430806464e-05 )
( 2.528106597e-05 -1.219650358e-06 -7.893689258e-07 4.551384791e-06 8.091743808e-08 3.334540088e-05 )
( 2.52165446e-05 -1.182761821e-06 -7.854533806e-07 4.566183634e-06 8.740005342e-08 3.338669558e-05 )
( 2.410178604e-05 -7.211589264e-07 -7.386949505e-07 3.07048208e-06 8.357741166e-08 3.172742436e-05 )
( 2.405030136e-05 -7.152169701e-07 -7.059203995e-07 3.07308278e-06 8.436523302e-08 3.178080078e-05 )
( 2.392949318e-05 -7.305116583e-07 -6.317810062e-07 3.048330882e-06 8.102473004e-08 3.189030758e-05 )
( 2.39847086e-05 -7.224447813e-07 -6.705221267e-07 3.054717126e-06 8.414691877e-08 3.183697845e-05 )
( 2.015090467e-05 -1.881357719e-07 -5.411700954e-07 1.091618742e-06 3.423419415e-08 2.57746342e-05 )
( 2.011320612e-05 -1.912101624e-07 -5.164270078e-07 1.092400453e-06 3.40763755e-08 2.579004649e-05 )
( 3.436724728e-05 -9.5502146e-06 4.043580759e-07 2.479044088e-05 -2.026835801e-07 3.467612623e-05 )
( 3.719022789e-05 -1.160857573e-05 6.4420027e-07 2.77288982e-05 -4.277221137e-07 3.501042374e-05 )
( 3.995842417e-05 -1.384836924e-05 4.155891133e-07 3.03698489e-05 -3.962190362e-07 3.580321209e-05 )
( 4.124647239e-05 -1.510830498e-05 3.086076674e-07 3.156465755e-05 -4.955261375e-07 3.647457561e-05 )
( 1.693995728e-05 -4.917810159e-08 -3.897928025e-07 5.639079745e-07 3.14430757e-08 2.128158485e-05 )
( 1.69558225e-05 -5.261829017e-08 -4.141498664e-07 5.624265782e-07 2.529990084e-08 2.127825246e-05 )
( 2.416304778e-05 -7.342235335e-07 -7.630446817e-07 3.07845653e-06 7.939731006e-08 3.168250259e-05 )
( 2.421447061e-05 -7.588834023e-07 -7.819584766e-07 3.073291737e-06 7.55742775e-08 3.164651207e-05 )
( 2.63360198e-05 -1.703522003e-06 -7.208752208e-07 5.911117114e-06 -9.446630855e-08 3.433863822e-05 )
( 2.642532854e-05 -1.697923267e-06 -7.22107302e-07 5.895988124e-06 -1.253133206e-07 3.434402606e-05 )
( 2.720444354e-05 -2.179166358e-06 -6.261282124e-07 8.22093989e-06 -1.983540443e-07 3.506348366e-05 )
( 2.727411265e-05 -2.176537009e-06 -5.93199502e-07 8.245427125e-06 -1.914318375e-07 3.513053161e-05 )
( 2.805995973e-05 -3.470006277e-06 -1.470501445e-07 1.241982409e-05 -2.821628868e-07 3.530961476e-05 )
( 2.806353405e-05 -3.47037917e-06 -1.4455604e-07 1.242170583e-05 -2.812577691e-07 3.531070615e-05 )
( 3.050284249e-05 -6.393245712e-06 -4.643107587e-08 1.953264473e-05 -1.620984875e-07 3.47550158e-05 )
( 3.203094457e-05 -7.44848694e-06 5.661950553e-08 2.131895963e-05 -1.79438544e-07 3.475375706e-05 )
( 3.069980085e-05 -6.386257155e-06 -5.813021176e-08 1.944041469e-05 -1.425315759e-07 3.480388477e-05 )
( 2.895639409e-05 -4.48246692e-06 -8.862705236e-09 1.520056958e-05 -1.880177365e-07 3.506289795e-05 )
( 2.878851592e-05 -4.49255549e-06 -2.703232838e-08 1.523123501e-05 -2.063968054e-07 3.502111576e-05 )
( 2.818957182e-05 -3.482909506e-06 -7.718921324e-08 1.24515027e-05 -2.361203855e-07 3.532996197e-05 )
( 2.818530629e-05 -3.48277058e-06 -7.869765284e-08 1.245156363e-05 -2.378443895e-07 3.532986375e-05 )
( 2.77705476e-05 -2.785373454e-06 -2.840301079e-07 1.034491743e-05 -2.489726398e-07 3.547495726e-05 )
( 2.772280641e-05 -2.777543159e-06 -3.421255315e-07 1.03596667e-05 -2.424662569e-07 3.543321509e-05 )
( 2.759483505e-05 -2.763676093e-06 -4.430421825e-07 1.032214732e-05 -2.223875413e-07 3.531035327e-05 )
( 2.763601879e-05 -2.766959597e-06 -4.039798966e-07 1.02951999e-05 -2.331162818e-07 3.537259909e-05 )
( 2.742513607e-05 -2.153939249e-06 -5.310614597e-07 8.226073987e-06 -1.753469689e-07 3.530284812e-05 )
( 2.736733586e-05 -2.158189318e-06 -5.567609946e-07 8.236997019e-06 -1.82525028e-07 3.523182022e-05 )
( 2.700735422e-05 -1.788413556e-06 -6.767724585e-07 6.683557785e-06 -1.839749615e-07 3.481469685e-05 )
( 2.695645708e-05 -1.802432507e-06 -7.055843412e-07 6.703528015e-06 -1.901971842e-07 3.474340701e-05 )
( 2.681176011e-05 -1.842173447e-06 -7.289409609e-07 6.680053048e-06 -1.848539739e-07 3.465211557e-05 )