/*--------------------------------*- C++ -*----------------------------------*\
  =========                 |
  \\      /  F ield         | OpenFOAM: The Open Source CFD Toolbox
   \\    /   O peration     | Website:  https://openfoam.org
    \\  /    A nd           | Version:  8
     \\/     M anipulation  |
\*---------------------------------------------------------------------------*/






FoamFile
{
    version     2.0;
    format      ascii;
    class       volScalarField;
    location    "0";
    object      pDDES;
}
// * * * * * * * * * * * * * * * * * * * * * * * * * * * * * * * * * * * * * //

dimensions      [0 2 -2 0 0 0 0];


internalField   nonuniform List<scalar> 
15853
(
-0.001955430489
-0.001955881715
-0.00195523072
-0.001956613734
-0.001955482876
-0.001955063548
-0.001955071231
-0.001957226545
-0.001956063323
-0.001955291489
-0.001954742009
-0.001955087762
-0.001954748295
-0.001957635395
-0.001956739463
-0.001955566462
-0.001955090556
-0.00195453316
-0.001954753883
-0.00195455458
-0.001959032379
-0.001957448432
-0.00195680256
-0.001956076827
-0.001955363899
-0.00195513037
-0.001954766456
-0.001954442123
-0.001954546431
-0.001954458421
-0.001959930407
-0.001957893837
-0.001956923865
-0.001956204884
-0.001955637708
-0.001955128042
-0.001954781823
-0.001954546664
-0.001954399981
-0.0019544526
-0.001954411156
-0.001961101312
-0.001959392568
-0.00195700652
-0.001957714325
-0.001956161577
-0.001955623971
-0.001955377404
-0.001954778563
-0.001955150627
-0.001954570878
-0.001954449341
-0.001954388106
-0.001954406267
-0.001954396954
-0.001959800487
-0.001964125084
-0.001960877562
-0.001958210021
-0.001956415828
-0.001957174623
-0.001955708023
-0.001955398824
-0.001955158543
-0.001954551786
-0.001954791602
-0.001954462845
-0.001954402542
-0.001954395324
-0.00195439253
-0.001954401843
-0.001958565321
-0.001962361624
-0.001966696698
-0.001960326917
-0.001958039124
-0.001957292669
-0.001955958083
-0.001956476131
-0.00195552595
-0.00195519533
-0.001955199754
-0.001954804407
-0.001954447944
-0.001954564126
-0.001954410691
-0.001954388339
-0.001954412321
-0.001954398118
-0.001954417909
-0.001957461704
-0.001958422363
-0.001957588131
-0.001960974885
-0.001965704607
-0.001962282928
-0.001968347933
-0.001959045883
-0.001956689171
-0.001955744112
-0.001956021879
-0.001955240965
-0.001955263084
-0.001954820007
-0.001954819774
-0.001954563661
-0.001954399049
-0.001954457955
-0.001954393927
-0.001954395324
-0.001954433508
-0.001954414416
-0.001954437932
-0.001956689171
-0.00195786776
-0.001956957858
-0.00195962633
-0.001967361197
-0.001963952091
-0.001961741364
-0.001967854565
-0.001958026784
-0.001958923647
-0.001956170425
-0.001955440734
-0.00195545936
-0.001955729444
-0.001954847015
-0.001954915002
-0.001954586012
-0.00195457018
-0.001954455627
-0.001954385079
-0.001954405569
-0.001954398816
-0.001954412088
-0.001954450039
-0.001954435138
-0.001954452833
-0.001956226071
-0.001957089873
-0.00195647683
-0.001958543435
-0.001959553221
-0.00195834972
-0.001966441981
-0.001966256415
-0.001963981427
-0.001962647308
-0.001960379304
-0.001964893891
-0.001957365545
-0.001955934335
-0.001955008833
-0.001955021871
-0.001955390908
-0.001955422107
-0.001954591135
-0.001954609528
-0.001954467734
-0.00195445423
-0.001954401378
-0.001954391366
-0.001954388106
-0.001954414882
-0.001954433508
-0.001954450738
-0.001955932938
-0.001956582069
-0.001956223743
-0.001957488246
-0.001957826782
-0.00195920188
-0.00196503778
-0.001965282019
-0.001962718321
-0.00196345197
-0.001961207483
-0.001960323891
-0.001959449612
-0.001959806541
-0.001956822351
-0.001955648186
-0.001955620944
-0.00195469358
-0.001954696141
-0.00195501186
-0.001955049578
-0.001954470528
-0.001954483567
-0.001954407664
-0.001954396255
-0.001954382984
-0.001954408828
-0.001954392763
-0.001954437234
-0.001954451902
-0.001955578802
-0.001955619548
-0.001956225839
-0.001955843065
-0.001955879852
-0.001956952037
-0.001957510598
-0.001958354143
-0.00196427526
-0.001964403549
-0.001964917872
-0.001961077331
-0.0019579113
-0.00196231599
-0.001959806308
-0.001960093156
-0.001961193979
-0.001958431676
-0.00195313571
-0.001956529217
-0.001955172047
-0.001955152722
-0.00195451756
-0.001954524778
-0.001954692183
-0.001954717794
-0.001954407664
-0.001954420237
-0.001954384847
-0.001954375068
-0.001954387408
-0.001954428386
-0.001954407897
-0.0019544526
-0.001955165528
-0.00195521256
-0.001955854706
-0.001955803949
-0.001955328509
-0.00195535738
-0.001956576947
-0.001956942026
-0.001957679167
-0.001963172108
-0.001960079884
-0.001963972347
-0.001964436378
-0.00195660023
-0.001951901824
-0.001960771158
-0.001962370472
-0.001961444272
-0.001958824461
-0.001959151821
-0.001957995584
-0.001948633697
-0.001956111751
-0.001956166234
-0.001954814885
-0.001954809297
-0.001954448177
-0.00195445912
-0.001954557141
-0.001954579493
-0.001954383217
-0.001954396255
-0.001954386244
-0.00195437693
-0.001954402542
-0.001954447711
-0.001954426989
-0.001954810694
-0.001954841893
-0.001955413958
-0.001955364365
-0.001954943174
-0.001954957144
-0.001956122229
-0.001956236782
-0.001956479624
-0.001956562279
-0.001957065426
-0.001962449169
-0.001961750444
-0.001963246614
-0.001958919922
-0.001955127344
-0.001963236136
-0.001964335795
-0.001963841729
-0.001950950595
-0.001947815414
-0.001960051479
-0.001960255904
-0.001958152745
-0.001958782319
-0.001957486151
-0.00194471539
-0.001955544576
-0.001955593703
-0.001954623731
-0.00195461628
-0.0019544221
-0.001954435371
-0.001954487758
-0.001954507548
-0.00195438345
-0.001954396954
-0.001954400912
-0.001954391133
-0.001954421401
-0.00195444189
-0.001954655163
-0.001954681473
-0.001954995561
-0.00195496087
-0.001954721985
-0.001954736654
-0.001955676358
-0.001955760177
-0.001955888234
-0.001955955289
-0.001956596505
-0.001956695225
-0.001961019589
-0.001961184433
-0.001962661743
-0.001959741116
-0.001953772968
-0.001950231614
-0.001962963026
-0.001964088995
-0.001963136252
-0.001947178855
-0.001944667893
-0.001959009329
-0.001959625399
-0.001957639121
-0.001958171371
-0.001957080793
-0.001956962515
-0.001943039475
-0.001955100801
-0.001955122221
-0.001954546431
-0.001954537351
-0.001954421634
-0.001954436768
-0.001954460982
-0.001954479376
-0.001954396721
-0.001954410225
-0.001954421401
-0.001954411855
-0.001954440027
-0.001954573905
-0.001954595791
-0.001954804175
-0.001954777166
-0.001954630949
-0.001954647945
-0.001955145737
-0.001955239568
-0.001955317333
-0.001955367858
-0.001956093125
-0.001956180437
-0.001960039837
-0.001960773254
-0.001962299226
-0.001960851951
-0.001953497995
-0.001958464039
-0.001949848142
-0.001946852542
-0.00196319283
-0.001963556046
-0.001963152783
-0.001961901318
-0.001962059177
-0.001944980002
-0.001943275449
-0.00195834972
-0.001958867302
-0.001957127126
-0.001957261469
-0.001957578585
-0.001957719447
-0.001956404187
-0.001956310123
-0.001941972412
-0.001954845618
-0.001954863546
-0.00195451593
-0.001954504754
-0.001954434905
-0.001954451902
-0.001954461681
-0.001954478212
-0.001954414882
-0.00195442955
-0.001954438165
-0.001954430714
-0.001954539213
-0.001954560168
-0.001954702893
-0.001954681007
-0.001954591833
-0.001954610925
-0.001954911975
-0.001954955282
-0.001955020009
-0.001955067273
-0.001955464948
-0.001955549233
-0.001959568122
-0.001960525755
-0.001961324131
-0.001950591221
-0.001955254236
-0.001958550187
-0.001947326469
-0.001945404103
-0.001963370014
-0.001962810056
-0.001962850103
-0.00196356955
-0.001961004687
-0.001961507602
-0.001943882206
-0.001957931556
-0.001957785105
-0.001958247274
-0.001958414679
-0.001956590218
-0.001956706401
-0.001956864493
-0.00195697695
-0.001955750631
-0.001955661457
-0.001942928997
-0.001954735722
-0.001954752719
-0.001954514533
-0.001954501495
-0.001954452833
-0.001954470295
-0.001954475883
-0.001954492182
-0.001954431878
-0.001954445615
-0.001954535488
-0.001954554813
-0.001954658423
-0.001954640029
-0.001954584848
-0.00195460557
-0.001954792067
-0.001954830252
-0.001954887528
-0.001954934793
-0.001955147833
-0.001955223735
-0.001959421672
-0.001958663575
-0.001959895948
-0.001961901551
-0.001951962127
-0.001948583638
-0.001954932464
-0.00195648009
-0.001959208865
-0.001946526114
-0.001944586169
-0.001963234972
-0.001963344635
-0.001963302959
-0.001962143462
-0.001962570939
-0.001960368827
-0.001960963476
-0.001957297558
-0.001957171829
-0.001957474742
-0.001957605593
-0.001955886604
-0.001956002321
-0.001956127118
-0.001956217457
-0.001955411164
-0.001955324784
-0.001944510732
-0.0019546845
-0.001954701031
-0.001954527805
-0.001954513136
-0.001954467269
-0.001954487292
-0.001954496838
-0.001954512438
-0.001954546198
-0.00195456692
-0.001954649575
-0.001954632578
-0.001954595791
-0.001954617677
-0.001954734325
-0.001954769483
-0.00195482187
-0.001954869367
-0.001955006737
-0.001955078682
-0.001958703389
-0.001958748326
-0.001957832836
-0.001959187444
-0.001958999783
-0.001962455921
-0.00196162099
-0.001963024028
-0.001954080071
-0.001950320438
-0.00194792985
-0.001955901738
-0.001957807457
-0.001960417954
-0.001945749391
-0.001963045448
-0.001963158371
-0.001961820526
-0.001962309005
-0.001959688263
-0.001959455665
-0.001959998393
-0.001960281981
-0.001956468914
-0.001956352033
-0.00195661257
-0.001956741791
-0.001955531072
-0.001955636777
-0.001955739222
-0.00195581303
-0.001955262152
-0.001955173677
-0.001946420292
-0.001946907723
-0.001954671694
-0.001954687526
-0.00195454713
-0.001954534557
-0.001954510808
-0.001954532694
-0.001954565523
-0.001954585081
-0.00195465982
-0.00195464422
-0.001954614883
-0.001954637701
-0.001954716863
-0.001954750624
-0.001954799751
-0.001954847947
-0.001954937121
-0.001955007203
-0.001957939472
-0.00195801747
-0.00195700652
-0.00195844518
-0.001958257752
-0.001963387011
-0.001962860581
-0.001962623559
-0.00195703702
-0.001952474238
-0.001949734404
-0.001957843546
-0.001959539019
-0.001962055219
-0.001962586073
-0.001962707611
-0.001961559989
-0.001960656606
-0.00196198537
-0.001958916429
-0.001958716894
-0.001959243556
-0.001959462184
-0.001956019085
-0.00195592083
-0.001956139458
-0.001956250286
-0.001955375774
-0.001955473796
-0.00195556134
-0.001955624437
-0.001955190441
-0.001955098473
-0.001948074205
-0.001949925325
-0.001948506106
-0.00195467961
-0.001954694977
-0.00195456855
-0.001954551786
-0.001954583451
-0.001954605337
-0.001954678446
-0.001954663312
-0.00195463188
-0.001954655629
-0.00195472315
-0.001954754582
-0.001954803476
-0.001954851206
-0.001954912674
-0.00195498229
-0.001957212109
-0.001957398374
-0.0019564135
-0.001957827481
-0.001957613276
-0.001963437535
-0.001963980496
-0.00196335325
-0.001960519236
-0.001955005107
-0.001959300134
-0.00195167982
-0.001961232629
-0.001963375369
-0.001963329036
-0.00196241471
-0.001963008661
-0.00196070713
-0.001960877096
-0.001959803514
-0.001961268485
-0.00196161028
-0.001958272653
-0.001958067529
-0.001958519686
-0.001958742039
-0.00195580232
-0.001955715939
-0.001955909422
-0.001956011169
-0.001955301734
-0.001955395332
-0.001955468906
-0.001955525484
-0.001955166925
-0.00195507193
-0.001948562567
-0.001953159925
-0.001951614628
-0.001954698469
-0.001954713371
-0.001954695908
-0.00195467798
-0.001954739215
-0.00195477088
-0.001954819309
-0.001954867505
-0.001954914536
-0.001954983687
-0.001956622349
-0.001956749475
-0.001956155524
-0.001957161818
-0.001956954133
-0.001963716699
-0.001963566057
-0.001962859649
-0.001963353483
-0.001957799541
-0.00196124427
-0.001962107373
-0.001953910105
-0.001963134622
-0.001964286203
-0.001965408446
-0.001964407042
-0.001963438233
-0.001962659648
-0.001962083625
-0.0019634536
-0.001959932968
-0.001960150432
-0.001959017478
-0.001960556721
-0.001960955793
-0.001957552508
-0.00195738161
-0.00195774436
-0.001957935281
-0.001955683343
-0.001955603715
-0.001955781132
-0.001955878921
-0.001955279149
-0.001955370186
-0.001955434447
-0.001955485437
-0.001955170883
-0.001955073327
-0.001948086312
-0.00195442792
-0.001954873325
-0.001956161577
-0.001954713836
-0.001954731531
-0.001954755513
-0.001954788342
-0.001954834908
-0.001954883803
-0.001954928739
-0.00195499789
-0.00195629755
-0.00195644307
-0.001956013031
-0.001956852153
-0.001956646331
-0.001964237075
-0.00196384429
-0.001965253148
-0.00196545478
-0.001965692965
-0.00196129526
-0.001963730901
-0.00196526153
-0.001966429641
-0.001966671785
-0.001964568859
-0.001962318085
-0.001962509239
-0.001961424947
-0.001963701798
-0.001963014714
-0.001959226327
-0.001959379995
-0.001958183013
-0.001959648682
-0.001959980698
-0.001957204426
-0.001957061235
-0.001957366476
-0.001957533415
-0.001955631655
-0.001955556683
-0.001955722924
-0.001955818152
-0.001955286367
-0.001955376239
-0.001955432817
-0.00195548078
-0.00195518788
-0.001955088461
-0.001956107328
-0.001954002772
-0.001960733207
-0.001958633307
-0.001954942243
-0.001955013257
-0.00195616018
-0.001956318272
-0.001955944346
-0.001956739696
-0.001956527121
-0.00196452043
-0.001967847114
-0.001967864344
-0.001966745593
-0.001966408454
-0.001967816614
-0.001964916242
-0.001966015669
-0.001966553042
-0.001967491349
-0.001966924407
-0.001965343719
-0.001961767673
-0.001961953938
-0.001960509224
-0.001963382121
-0.001963851508
-0.001962340437
-0.001958414679
-0.001958669862
-0.001957755303
-0.001958932262
-0.001959355315
-0.001957063796
-0.001956938766
-0.001957204426
-0.001957357628
-0.001955618616
-0.001955547603
-0.001955707557
-0.001955800457
-0.001955306623
-0.001955396729
-0.00195544865
-0.001955492422
-0.001955205575
-0.001955102198
-0.00196293206
-0.001960353693
-0.001956094056
-0.00195626216
-0.001955921529
-0.001956700813
-0.001956478227
-0.001964910654
-0.001967659686
-0.001969324425
-0.001970490674
-0.001969160745
-0.001970166573
-0.001970076701
-0.001966947457
-0.001970027341
-0.001967909513
-0.001967707183
-0.001967591932
-0.001966728829
-0.001967672724
-0.00196507317
-0.001965804258
-0.001960939262
-0.001961298054
-0.001959883841
-0.001962850336
-0.001963371178
-0.001961762784
-0.001957996981
-0.001958253095
-0.001957560191
-0.001958602807
-0.001959021902
-0.001957001863
-0.001956892665
-0.001957125729
-0.001957269851
-0.001955625368
-0.001955555519
-0.001955712913
-0.001955805346
-0.001955321757
-0.001955412328
-0.001955464017
-0.001955508254
-0.001968388911
-0.001956072869
-0.001956245862
-0.001955923159
-0.001956704073
-0.001956470311
-0.001963984687
-0.00196838961
-0.001971731661
-0.001970262965
-0.001972024795
-0.001972587779
-0.001971519552
-0.001972410362
-0.001968281809
-0.001972334459
-0.001970142126
-0.001970993821
-0.001968013588
-0.001967570744
-0.001966321142
-0.001964671537
-0.001965307631
-0.001960417721
-0.001960858703
-0.001959558344
-0.001962251496
-0.001962803071
-0.001961308531
-0.001957800006
-0.001958063804
-0.001957457745
-0.001958409091
-0.001958828419
-0.001956987428
-0.0019568922
-0.001957100583
-0.001957238186
-0.00195563864
-0.001955567393
-0.001955724321
-0.001955817686
-0.001972249011
-0.001971867867
-0.001956073334
-0.001956248889
-0.001955933636
-0.001956724795
-0.001956479158
-0.00196336722
-0.001970133977
-0.001973271603
-0.001972347498
-0.001972066937
-0.001973305363
-0.001975218533
-0.001974984771
-0.00197396474
-0.001974393381
-0.001968690427
-0.001974905841
-0.00196809927
-0.001966886222
-0.001965643838
-0.001963987481
-0.001964783063
-0.001960137859
-0.00196057884
-0.001959373476
-0.001961783506
-0.001962284092
-0.001960994909
-0.001957694767
-0.001957963919
-0.001957416767
-0.00195830781
-0.001958731562
-0.001956996974
-0.001956912689
-0.001957102679
-0.001957236556
-0.001977868844
-0.001976720989
-0.001956081251
-0.001956259832
-0.00195674086
-0.001956491265
-0.001962867565
-0.00197147741
-0.001974959625
-0.001974062296
-0.001973280683
-0.001972590107
-0.00197825674
-0.001976830419
-0.001977960113
-0.001977281878
-0.001975640887
-0.001975850901
-0.00196897774
-0.00197000918
-0.001967792865
-0.001966498327
-0.001965218224
-0.001963512739
-0.001964293653
-0.001959991874
-0.001960428432
-0.001959293149
-0.001961442642
-0.001961922739
-0.001960803056
-0.001957650296
-0.001957922243
-0.001957407687
-0.001958265435
-0.001958694309
-0.001957015833
-0.00195692433
-0.00195711269
-0.001957243774
-0.001982488669
-0.001980984583
-0.001962500392
-0.001971347257
-0.001975808758
-0.001974750077
-0.001973867184
-0.00197256566
-0.001980849542
-0.001979757333
-0.001979038818
-0.00198052777
-0.001979305409
-0.001977203647
-0.001977047883
-0.001969023375
-0.001970269484
-0.001967545832
-0.001966217998
-0.001964930212
-0.001963165123
-0.001963951159
-0.001959948801
-0.001960372785
-0.001959275454
-0.001961226808
-0.001961694798
-0.001960708527
-0.001957640052
-0.001957910368
-0.001957414672
-0.001958251465
-0.001958681969
-0.001985177398
-0.00198416342
-0.001982650254
-0.001983135939
-0.001962263603
-0.001971023623
-0.001976405038
-0.001975241117
-0.001973997802
-0.001972367987
-0.001983476104
-0.001982107759
-0.001981279813
-0.001982512884
-0.001981025096
-0.001978612039
-0.00197787513
-0.001968718832
-0.001969957724
-0.001967326272
-0.001966015436
-0.001964765601
-0.001962935552
-0.001963742776
-0.001959968125
-0.001960376743
-0.00195927755
-0.001961112022
-0.001961575355
-0.001960679423
-0.001957639819
-0.001957912697
-0.001958249835
-0.001958678477
-0.001987907337
-0.001987359719
-0.001985232811
-0.001986398129
-0.001962132985
-0.001970728626
-0.001976700965
-0.001975516556
-0.001973968698
-0.001972173806
-0.001985301264
-0.001984247938
-0.001982863527
-0.001984081697
-0.001982437912
-0.001979160355
-0.001978104934
-0.001968441997
-0.001969586825
-0.001967133954
-0.001965914387
-0.001964704366
-0.001962811453
-0.001963638701
-0.001960013527
-0.00196040934
-0.001959304325
-0.001961068716
-0.001961527858
-0.001960685244
-0.001989452168
-0.001990023069
-0.001987211406
-0.001988914795
-0.00196207827
-0.001970498357
-0.001976941945
-0.001975520514
-0.001973836916
-0.001971997786
-0.001986602787
-0.00198531989
-0.001983557595
-0.001985041192
-0.001980929868
-0.001982663991
-0.001979604596
-0.001978348009
-0.001968209865
-0.001969307195
-0.001967015211
-0.001965904143
-0.001964708092
-0.001962759765
-0.00196360657
-0.001960012363
-0.001960439375
-0.001961064991
-0.001961521339
-0.001960708993
-0.001991229365
-0.001991833095
-0.001987875439
-0.001990131568
-0.001962065231
-0.001970350044
-0.001976997126
-0.001975420164
-0.001973708393
-0.00197187718
-0.001988023752
-0.001986683346
-0.001983984374
-0.001985625364
-0.001981448848
-0.001982669113
-0.001979870722
-0.001978456043
-0.001968054567
-0.001969133737
-0.001966974232
-0.001965954434
-0.001964732539
-0.001962748822
-0.001963602845
-0.001961075934
-0.001961530885
-0.001993415877
-0.001993526937
-0.001989650074
-0.001991264988
-0.001962075243
-0.001970279729
-0.001976912608
-0.001975324703
-0.001973627368
-0.001971817808
-0.001989357872
-0.001987425378
-0.00198417576
-0.001985917334
-0.001981434179
-0.001982581336
-0.001979890745
-0.001978412503
-0.001967979362
-0.00196905178
-0.001966989134
-0.001966024749
-0.001964769326
-0.001962754177
-0.001963616116
-0.001995191677
-0.001994793303
-0.00199080701
-0.00199236325
-0.001970273443
-0.001976810861
-0.001975283027
-0.001973601989
-0.001971814781
-0.001989775104
-0.00198775786
-0.001984208124
-0.001985992305
-0.001981238835
-0.001982473303
-0.001979798544
-0.001978313085
-0.001967967488
-0.001969040604
-0.001967031974
-0.001966039883
-0.001996428007
-0.001995744649
-0.001991533441
-0.001992826117
-0.001970305108
-0.001976750558
-0.001975297462
-0.001973622479
-0.001971844351
-0.001989871496
-0.001987834694
-0.001984167378
-0.001985966926
-0.001981066307
-0.001982398797
-0.001979684224
-0.001978229266
-0.001967992168
-0.001969071105
-0.001967077143
-0.001997014042
-0.001996170497
-0.001991677564
-0.001993067097
-0.001970353769
-0.001976744039
-0.001975348685
-0.001973662991
-0.00197188952
-0.001989831682
-0.001987793716
-0.001984125702
-0.001985926414
-0.001980955247
-0.001982371788
-0.00197959342
-0.001978186192
-0.001968029886
-0.001969109289
-0.001997256652
-0.001996434294
-0.001991553698
-0.001992965583
-0.00197677454
-0.001975411316
-0.001973696053
-0.00198967522
-0.001987733878
-0.001984110568
-0.001985910349
-0.00198090612
-0.001982386457
-0.001979546621
-0.001978182932
-0.001997438958
-0.001996360952
-0.001991288736
-0.001992794685
-0.001976819476
-0.001975427615
-0.001989637269
-0.001987700118
-0.001984125003
-0.00198592036
-0.001980910543
-0.001982429065
-0.00197954406
-0.00197820575
-0.00199745642
-0.001996441977
-0.001991331344
-0.001992794918
-0.001976863481
-0.001989699434
-0.001987698022
-0.001984157832
-0.001985947369
-0.001980951522
-0.001982487738
-0.00197957363
-0.001978231128
-0.001997460844
-0.001996445004
-0.00199143216
-0.001993122511
-0.00198970153
-0.001987711061
-0.001984192058
-0.001985964831
-0.001980996225
-0.001979610883
-0.001997468295
-0.001996662933
-0.001991647063
-0.00199358142
-0.0019896843
-0.001987740863
-0.001997542335
-0.001996771665
-0.0019918459
-0.001994080143
-0.001975570805
-0.001973440638
-0.001976739615
-0.001974529121
-0.001970476704
-0.001977671869
-0.001971674617
-0.001975364983
-0.001967062242
-0.001978107495
-0.001972392667
-0.001968324184
-0.001975658815
-0.00196450972
-0.001965119969
-0.001978128916
-0.001972710714
-0.001969082747
-0.001966292271
-0.001965871314
-0.001975652063
-0.001960624475
-0.001961384434
-0.001977902371
-0.001969406381
-0.001972687198
-0.001966739073
-0.001966968644
-0.001962585608
-0.001962038456
-0.001975364285
-0.001958371606
-0.001958681969
-0.001959438901
-0.001959169982
-0.001977372915
-0.001967213117
-0.001969349803
-0.0019671591
-0.001972330036
-0.001963014482
-0.001963362098
-0.001960644731
-0.001960450783
-0.001959857531
-0.00196009432
-0.001974775223
-0.001956311287
-0.001956708264
-0.001957484055
-0.001957145054
-0.001976525178
-0.001967178192
-0.001963669434
-0.001968909986
-0.001967055257
-0.001963556511
-0.001971628517
-0.001960926689
-0.00196109619
-0.001961451257
-0.001961331349
-0.001958727837
-0.001958485693
-0.001957863104
-0.001958158333
-0.001973868581
-0.001954453299
-0.001954822568
-0.001955647487
-0.001955317566
-0.001975351479
-0.001963672694
-0.001961779315
-0.001961745089
-0.001966510667
-0.001968126744
-0.001966786105
-0.001963568386
-0.001961586764
-0.001961650327
-0.001970643178
-0.001958991401
-0.001959181391
-0.00195955392
-0.001959405839
-0.001956965309
-0.001956727123
-0.001956076128
-0.001956362743
-0.001972645056
-0.00195291033
-0.001953363186
-0.001954219071
-0.001953814644
-0.001973906066
-0.001961802831
-0.001961795613
-0.001959971152
-0.001959916437
-0.001966031035
-0.001963054994
-0.001967049204
-0.001965633128
-0.001963352552
-0.001961705741
-0.001961757196
-0.001959699905
-0.001959809102
-0.001969391247
-0.001957261469
-0.001957457745
-0.001957848435
-0.001957691042
-0.001955596032
-0.001955302199
-0.001954613719
-0.001954962499
-0.001971163787
-0.001951431506
-0.001951904967
-0.001952784718
-0.001952360151
-0.001972529804
-0.001960013993
-0.001960024936
-0.001958332025
-0.001958263805
-0.001962676644
-0.001961200498
-0.001961322967
-0.001964513911
-0.001965545118
-0.001965004252
-0.001962229377
-0.001961580478
-0.001961491769
-0.001959969755
-0.001960019814
-0.001958025154
-0.001958141569
-0.001967738383
-0.001955879852
-0.001956119668
-0.001956536435
-0.001956352498
-0.001954233041
-0.001953911735
-0.001953188097
-0.001953558996
-0.001969534904
-0.001950159436
-0.001950648148
-0.001951553742
-0.00195111474
-0.001970795449
-0.00195838674
-0.001958415844
-0.001957073342
-0.001956989756
-0.001960978378
-0.001960830763
-0.00195951527
-0.001959653106
-0.001963413553
-0.001961152768
-0.001963868504
-0.001965930685
-0.001962350216
-0.001961724367
-0.001960402587
-0.00196056976
-0.00195988128
-0.0019597793
-0.001958398614
-0.001958417706
-0.001956720836
-0.001956861466
-0.001966197975
-0.001965182368
-0.001954531297
-0.001954797655
-0.001955250744
-0.001955038402
-0.001953058527
-0.001952721155
-0.001951968065
-0.00195235631
-0.001967843622
-0.001949221594
-0.001949721598
-0.001950650942
-0.001950199483
-0.001968941418
-0.001957145054
-0.001957180211
-0.001955860527
-0.001955754356
-0.001959342975
-0.001959172543
-0.001958019799
-0.001958118984
-0.001960551832
-0.001959358575
-0.001959568821
-0.001962595154
-0.001961260103
-0.001959628891
-0.001960111549
-0.001959911548
-0.001958771143
-0.001958966954
-0.00195830781
-0.001958248438
-0.001957172994
-0.00195720396
-0.001955446322
-0.001955613494
-0.001964194467
-0.001964346506
-0.001963477582
-0.001953372499
-0.001953656552
-0.001954144333
-0.001953916391
-0.001952202059
-0.001951853279
-0.001951076905
-0.001951477025
-0.001966085983
-0.001948567107
-0.001949075144
-0.001950019854
-0.001949560712
-0.001966980286
-0.001955942949
-0.00195599813
-0.001954815816
-0.001954690553
-0.001957840053
-0.001957709901
-0.001956834458
-0.001956954366
-0.001958978362
-0.001958713867
-0.001957744826
-0.001958025154
-0.001960062422
-0.001961541129
-0.00195875694
-0.001957869856
-0.001958431676
-0.001958544366
-0.001958305482
-0.001957322704
-0.001957487315
-0.001957124099
-0.001957040746
-0.001956032589
-0.001956032356
-0.001954356441
-0.001954535954
-0.001964623109
-0.001961194444
-0.00196211203
-0.00196288689
-0.001960809808
-0.001952526509
-0.001952823251
-0.001953337574
-0.001953094266
-0.001951608341
-0.001951250713
-0.001950454898
-0.001950865844
-0.001964047318
-0.001964121126
-0.001948144287
-0.00194865698
-0.001949611702
-0.001949147088
-0.001965104137
-0.001954914536
-0.001954986015
-0.0019540512
-0.001953912899
-0.00195670547
-0.001956543187
-0.001955758315
-0.001955861459
-0.001957389992
-0.001957138767
-0.001956333872
-0.001956557157
-0.001959348563
-0.001958642853
-0.001959029119
-0.001957461704
-0.001957008149
-0.001957806293
-0.001956704771
-0.001956989057
-0.00195705425
-0.001956857042
-0.001956155989
-0.001956369961
-0.001955996966
-0.00195593969
-0.00195504888
-0.001955032814
-0.001953556202
-0.001953745959
-0.001958639128
-0.00196019467
-0.00195960165
-0.001961590955
-0.001958349021
-0.001951941755
-0.001952247578
-0.001952779246
-0.00195252744
-0.001951227197
-0.001950863167
-0.001950052916
-0.00195047108
-0.001961545553
-0.001962303184
-0.00196280377
-0.001963907154
-0.001947900862
-0.001948416932
-0.001949378522
-0.001948910416
-0.001962383045
-0.001963134389
-0.001954162493
-0.00195424608
-0.001953527797
-0.001953379484
-0.001955637708
-0.001955490559
-0.001954838634
-0.001954928506
-0.001956117572
-0.001955956686
-0.001955389045
-0.001955470536
-0.001958119683
-0.001957826782
-0.001957000233
-0.001956101507
-0.001956398832
-0.001956111751
-0.001955317333
-0.001955807675
-0.001955930144
-0.001955690095
-0.001955126645
-0.001955321524
-0.001955037005
-0.001954993699
-0.001954331761
-0.001954302425
-0.001953005558
-0.001953204395
-0.001956874272
-0.00195767195
-0.001957386965
-0.001959057758
-0.001958342502
-0.001957996748
-0.001960511319
-0.00195702468
-0.001956790686
-0.001957322471
-0.001951567479
-0.001951879356
-0.00195242255
-0.001952165505
-0.001951009268
-0.001950641163
-0.001949823461
-0.001950244769
-0.001960164402
-0.001959000481
-0.001961130882
-0.001947782235
-0.001948300749
-0.001949266647
-0.001948796446
-0.001961752074
-0.001960456371
-0.001961507602
-0.001960771391
-0.001953647938
-0.001953740604
-0.001953196013
-0.001953040133
-0.001954727806
-0.001954591833
-0.001954168547
-0.001954247244
-0.001955338521
-0.001955163199
-0.001954275183
-0.001954475185
-0.001956525957
-0.001956111053
-0.001955417683
-0.001955194632
-0.001955285668
-0.001954821637
-0.001953779021
-0.00195474783
-0.001954905922
-0.001954677515
-0.001954243751
-0.00195443118
-0.001954331063
-0.00195430126
-0.00195384305
-0.001953805564
-0.001952653634
-0.001952858409
-0.001956402557
-0.00195552106
-0.001955830958
-0.001956455642
-0.00195774273
-0.001955791842
-0.001957928762
-0.001957090572
-0.001956201391
-0.001955664717
-0.001955479383
-0.001955764601
-0.001951354905
-0.001951670973
-0.001952221384
-0.001951960614
-0.00195090496
-0.001950533362
-0.001949712751
-0.001950135687
-0.001957678469
-0.001958904089
-0.001957111061
-0.001958050067
-0.001959776506
-0.001947737415
-0.001948256628
-0.001949225087
-0.001948753954
-0.001960939029
-0.001958375797
-0.00195890246
-0.001959288493
-0.001953323372
-0.001953422558
-0.001953009516
-0.001952849329
-0.001954067964
-0.001953942003
-0.001953716623
-0.001953788102
-0.001954230946
-0.001954023493
-0.001953468891
-0.001953627216
-0.001954922918
-0.001954692416
-0.001954442356
-0.001953763654
-0.00195436459
-0.001953562722
-0.001953640487
-0.001952709863
-0.00195378135
-0.001954039326
-0.001953816507
-0.001953607425
-0.001953789033
-0.001953853527
-0.001953833504
-0.001953536877
-0.001953494269
-0.001952455961
-0.001952663762
-0.001955086133
-0.001954185544
-0.001955010463
-0.001954914769
-0.0019556724
-0.00195429055
-0.001956454245
-0.001955876127
-0.00195691362
-0.001954804407
-0.001954598119
-0.001953996718
-0.001954344567
-0.001951252809
-0.001951570972
-0.001952126971
-0.001951863524
-0.001950867707
-0.001950494829
-0.001949672587
-0.001950095291
-0.001956460997
-0.001955874031
-0.001956506865
-0.001957800705
-0.001957431436
-0.001957062166
-0.001956000691
-0.001947729383
-0.001948248944
-0.001949217869
-0.001948745339
-0.001956854947
-0.001956991851
-0.001957375556
-0.00195808732
-0.001957211178
-0.001958614448
-0.001957644708
-0.001957755536
-0.001953141531
-0.001953245606
-0.001952922437
-0.001952759456
-0.001953624422
-0.001953507075
-0.001953435829
-0.001953502651
-0.001953310799
-0.001953141531
-0.001952884835
-0.001953011844
-0.001953791594
-0.001953569008
-0.001953703817
-0.001952777151
-0.001953200204
-0.001952519757
-0.001952784252
-0.001952152466
-0.001952981809
-0.001953408122
-0.001953184605
-0.001953181345
-0.001953359926
-0.00195355434
-0.001953542233
-0.001953368308
-0.001953321509
-0.00195236248
-0.001952572376
-0.001954018604
-0.001953017432
-0.001954389969
-0.001954156905
-0.001953652594
-0.001955138287
-0.001953260507
-0.001955363201
-0.001954938518
-0.001953897765
-0.001953511732
-0.00195302302
-0.001953383442
-0.001951216836