/*--------------------------------*- C++ -*----------------------------------*\
  =========                 |
  \\      /  F ield         | OpenFOAM: The Open Source CFD Toolbox
   \\    /   O peration     | Website:  https://openfoam.org
    \\  /    A nd           | Version:  8
     \\/     M anipulation  |
\*---------------------------------------------------------------------------*/






FoamFile
{
    version     2.0;
    format      ascii;
    class       volVectorField;
    location    "0";
    object      UDDES;
}
// * * * * * * * * * * * * * * * * * * * * * * * * * * * * * * * * * * * * * //

dimensions      [0 1 -1 0 0 0 0];


internalField   nonuniform List<vector> 
15853
(
( -0.002018663799 0.002212283434 7.077607734e-05 )
( -0.002227745019 0.002472617198 6.947502698e-05 )
( -0.001849421766 0.002015163423 6.66364067e-05 )
( -0.002475191839 0.002802737057 6.640561332e-05 )
( -0.001975189429 0.002169503365 6.472620589e-05 )
( -0.001661391812 0.001803426072 6.323472189e-05 )
( -0.001680791611 0.001822354272 6.605451199e-05 )
( -0.002631432377 0.003014264163 5.987312397e-05 )
( -0.002229160164 0.002487027086 6.383680739e-05 )
( -0.00181021099 0.001974215265 6.321731053e-05 )
( -0.001279973425 0.001364351949 5.590641376e-05 )
( -0.001625078265 0.001764384448 6.236797344e-05 )
( -0.001297335373 0.001381961163 5.790675641e-05 )
( -0.002635233104 0.003039769363 4.966062261e-05 )
( -0.002433774527 0.002757007023 5.617064016e-05 )
( -0.001959132729 0.002156100236 5.874921771e-05 )
( -0.001605077763 0.001744931564 5.985511598e-05 )
( -0.0009521294851 0.0009984605713 5.142466398e-05 )
( -0.001251711161 0.001337667112 5.369199062e-05 )
( -0.0009696567431 0.001015831367 5.357209739e-05 )
( -0.002687379718 0.00321309315 3.102043775e-05 )
( -0.002555122366 0.002921034582 4.572567195e-05 )
( -0.002402086742 0.002719901735 5.153023449e-05 )
( -0.002198062139 0.002445954597 5.727722964e-05 )
( -0.001810883754 0.001983011141 5.707275341e-05 )
( -0.001594938105 0.001739097876 5.450836397e-05 )
( -0.001235105447 0.001321966527 5.15519132e-05 )
( -0.000711057568 0.0007367687649 4.512363739e-05 )
( -0.0009267332498 0.0009753461345 4.994712799e-05 )
( -0.0007254783413 0.0007518560742 4.707061453e-05 )
( -0.002612132113 0.003212242853 1.774579505e-05 )
( -0.002561049536 0.002944869222 3.486797505e-05 )
( -0.002351705451 0.002657319652 4.241344868e-05 )
( -0.002166960854 0.002416539937 5.116824832e-05 )
( -0.001944799093 0.002143038437 5.304302249e-05 )
( -0.001576599549 0.001720266649 5.167002746e-05 )
( -0.001212838339 0.001302687335 4.639910185e-05 )
( -0.000909891387 0.0009607407264 4.726421321e-05 )
( -0.0005172331003 0.0005302685895 3.670273873e-05 )
( -0.000692300091 0.0007210744079 4.32711422e-05 )
( -0.0005288738175 0.000542623864 3.827574255e-05 )
( -0.00232385518 0.003037754446 2.136280727e-06 )
( -0.002590109594 0.003097974928 1.739439904e-05 )
( -0.002326989314 0.002624127315 3.676400593e-05 )
( -0.002489578677 0.002829870442 2.988253254e-05 )
( -0.002071937546 0.002298118779 4.109406655e-05 )
( -0.001849116175 0.00203319639 4.414937212e-05 )
( -0.001742591616 0.001905109035 5.131728176e-05 )
( -0.001197926002 0.001286882558 4.399625686e-05 )
( -0.001536580152 0.001676022657 5.037332812e-05 )
( -0.0008925403818 0.0009455985855 4.322390669e-05 )
( -0.0006760132383 0.0007066378603 4.122986502e-05 )
( -0.0003624664387 0.0003678885405 2.822646456e-05 )
( -0.000501674891 0.0005173353711 3.510952956e-05 )
( -0.0003712150501 0.0003772881464 2.947671965e-05 )
( -0.002506032586 0.002976754215 3.333867426e-06 )
( -0.001383724506 0.002644468332 -1.948409408e-05 )
( -0.002367289271 0.00293167308 -8.484453247e-06 )
( -0.002498066518 0.00284934137 1.829225948e-05 )
( -0.002096656943 0.002327002585 3.383723379e-05 )
( -0.002295022598 0.002575298073 2.619203224e-05 )
( -0.001816166099 0.001995536033 3.650624421e-05 )
( -0.001678331289 0.001837398158 4.076482583e-05 )
( -0.001517957193 0.001656262786 4.746057311e-05 )
( -0.0008759279735 0.0009279666701 4.086667832e-05 )
( -0.001166632515 0.001255152281 4.234277731e-05 )
( -0.0006544288481 0.0006875869003 3.888038191e-05 )
( -0.0004882765643 0.0005053435452 3.346156154e-05 )
( -0.0002423375263 0.0002435464412 2.040838444e-05 )
( -0.00035032304 0.0003577336611 2.70249584e-05 )
( -0.0002486126614 0.0002503659925 2.13188996e-05 )
( -0.00243757898 0.002739388496 3.104219559e-06 )
( -0.001905679586 0.002672901843 -2.324335401e-05 )
( 0.0002947172034 0.002023280598 -3.382713476e-05 )
( -0.002385044703 0.002830109326 -9.988480997e-06 )
( -0.002436807612 0.002735437127 1.210504615e-05 )
( -0.002279545413 0.002545696683 1.714907557e-05 )
( -0.001889433595 0.002066777088 2.949812369e-05 )
( -0.002074222546 0.0022855727 2.406564636e-05 )
( -0.001668231329 0.001819773577 3.420303619e-05 )
( -0.001502244384 0.001642411225 4.153213013e-05 )
( -0.001487063011 0.001624721568 3.812002979e-05 )
( -0.00114759116 0.001235396718 4.029111733e-05 )
( -0.0006403476 0.0006716590724 3.683179602e-05 )
( -0.0008481197292 0.000901205116 3.978725363e-05 )
( -0.0004688296467 0.0004884054651 3.184715024e-05 )
( -0.0003399871057 0.0003483416804 2.571331788e-05 )
( -0.0001502799132 0.0001494822354 1.352745494e-05 )
( -0.0002336709731 0.0002362214145 1.952063212e-05 )
( -0.0001543542458 0.0001539609511 1.412121856e-05 )
( -0.00224498217 0.002479888266 8.433803487e-06 )
( -0.002388786525 0.002627990907 -2.932905318e-06 )
( -0.002231169958 0.002443442121 2.045994279e-06 )
( -0.002270355355 0.002667096211 -2.254768515e-05 )
( -0.0002182789904 0.002056671074 -4.476882896e-05 )
( -0.001969347708 0.002545127645 -3.235169788e-05 )
( 0.003369740676 0.001214793068 -6.075599958e-05 )
( -0.002384399297 0.002622501692 -9.932726243e-06 )
( -0.002075089607 0.002274932805 1.498341953e-05 )
( -0.00175079261 0.00190657354 2.788273923e-05 )
( -0.001861297176 0.002029856434 2.152607703e-05 )
( -0.001461060485 0.001593348919 3.542100239e-05 )
( -0.001451312099 0.001581094577 3.128114986e-05 )
( -0.001121895039 0.001209954615 3.55470911e-05 )
( -0.001108112512 0.001193508157 3.269536683e-05 )
( -0.0008271514671 0.0008805638063 3.781986015e-05 )
( -0.0004570093588 0.0004748300416 3.017619019e-05 )
( -0.000620193081 0.0006533769192 3.522104453e-05 )
( -0.0003249076544 0.0003353496431 2.447283623e-05 )
( -0.0002262128983 0.0002292892605 1.855618393e-05 )
( -7.930841093e-05 7.871320122e-05 7.567137345e-06 )
( -0.0001446780079 0.0001446581591 1.292294655e-05 )
( -8.154092939e-05 8.12822982e-05 7.866436135e-06 )
( -0.002008373849 0.002168256557 4.625673228e-06 )
( -0.002220693277 0.002393615898 -6.408785339e-06 )
( -0.002023989335 0.002163327765 -2.699188826e-06 )
( -0.002316389233 0.00247900025 -2.214295273e-05 )
( 0.00279231905 0.001244849875 -6.977799785e-05 )
( -0.001077910536 0.002149153035 -4.845957665e-05 )
( -0.002048920142 0.00245993305 -3.360004848e-05 )
( 0.007915642112 0.0004553925537 -0.0001044249511 )
( -0.00220997422 0.00235252385 -9.869670976e-06 )
( -0.002344931941 0.002507775556 -1.383835115e-05 )
( -0.00184765656 0.001987966476 9.649455933e-06 )
( -0.001542391721 0.001679786947 2.876064718e-05 )
( -0.001531134825 0.0016657589 2.45763531e-05 )
( -0.001645026496 0.001777868136 1.628788414e-05 )
( -0.001088908873 0.001172502409 2.93029043e-05 )
( -0.001121376525 0.001208611182 2.796904118e-05 )
( -0.0008067323361 0.0008602293092 3.411011858e-05 )
( -0.0007924420061 0.0008426879649 3.106551958e-05 )
( -0.0006046465714 0.0006381190615 3.292084875e-05 )
( -0.0003154508013 0.0003244912077 2.307651448e-05 )
( -0.0004415038275 0.0004609501048 2.845238487e-05 )
( -0.0002152790112 0.0002198846632 1.761527346e-05 )
( -0.0001398002787 0.0001400139736 1.22091642e-05 )
( -3.402635048e-05 3.573756112e-05 3.482195098e-06 )
( -7.622381963e-05 7.608773012e-05 7.208303941e-06 )
( -3.502026811e-05 3.685432966e-05 3.640931027e-06 )
( -0.001799753867 0.001915931469 1.888286192e-06 )
( -0.002028767718 0.002129346365 -7.820833162e-06 )
( -0.001836467651 0.001920779818 -5.319949196e-06 )
( -0.002179816365 0.002235818887 -2.489814142e-05 )
( -0.002291579032 0.00237149396 -2.777880582e-05 )
( -0.002191741951 0.002283790149 -1.852456626e-05 )
( 0.002251711208 0.001250363886 -7.988748985e-05 )
( 0.007943724282 0.0004349643714 -0.0001128115255 )
( -0.001062271767 0.001969371922 -6.211581058e-05 )
( -0.001792663359 0.002221112838 -4.930500654e-05 )
( -0.002229782054 0.002328255447 -3.616440154e-05 )
( 0.0128408717 9.385940211e-05 -0.0001344686316 )
( -0.002039000625 0.002106567612 -1.43609077e-05 )
( -0.001693943515 0.001809142763 6.344453595e-06 )
( -0.001163596753 0.00125789782 2.417811629e-05 )
( -0.001152773853 0.001244697487 2.11413917e-05 )
( -0.00141116837 0.001529010478 1.72322616e-05 )
( -0.001403280767 0.00151471945 1.256571704e-05 )
( -0.0007725970936 0.0008230538224 2.871527249e-05 )
( -0.0007642300916 0.0008149798377 2.459905227e-05 )
( -0.0005825702101 0.0006166941021 3.04700261e-05 )
( -0.0005703677889 0.0006005578907 2.786825462e-05 )
( -0.0004284350725 0.0004479593772 2.660800237e-05 )
( -0.0002081022249 0.0002116975957 1.657728171e-05 )
( -0.0003029808868 0.0003132770362 2.173457324e-05 )
( -0.000132578949 0.0001337513095 1.158394207e-05 )
( -7.360097516e-05 7.344583719e-05 6.801094514e-06 )
( -3.264888073e-05 3.450147415e-05 3.344737706e-06 )
( -0.001598506002 0.001682294765 -2.684565061e-06 )
( -0.001829972025 0.001889445353 -1.132960369e-05 )
( -0.001705954783 0.00176948763 -9.044266335e-06 )
( -0.001997788902 0.00201077573 -2.379499165e-05 )
( -0.002016592305 0.001992004458 -2.981428406e-05 )
( -0.002213494619 0.002232682658 -3.203890083e-05 )
( 0.0008836853667 0.001389875193 -8.394110773e-05 )
( 0.007617738098 0.0004193736531 -0.0001148045776 )
( 0.01378341205 5.277635864e-05 -0.0001421419147 )
( -0.001232997514 0.001907383557 -6.624610251e-05 )
( -0.002078212798 0.002131912392 -5.096293899e-05 )
( -0.002218067879 0.002221073257 -4.373496267e-05 )
( -0.002203689655 0.002186096273 -3.870267028e-05 )
( 0.01796927303 8.713862917e-05 -0.000160704396 )
( -0.001832513604 0.001843147678 -2.038950333e-05 )
( -0.001494294149 0.001597657334 5.425975814e-06 )
( -0.001500455895 0.001610770705 9.703150681e-06 )
( -0.0007938935887 0.0008491199696 2.191284693e-05 )
( -0.0007830460672 0.0008368110284 1.836192678e-05 )
( -0.001080164686 0.001161689288 1.481774871e-05 )
( -0.001072592102 0.0011480127 1.097607674e-05 )
( -0.0005560109857 0.0005873331102 2.522551949e-05 )
( -0.0005450309836 0.0005768609699 2.252278318e-05 )
( -0.0004101461091 0.0004304645699 2.462391421e-05 )
( -0.0003999778419 0.0004166402505 2.24389114e-05 )
( -0.0002925876761 0.0003028530627 2.030092583e-05 )
( -0.0001275758696 0.0001281284349 1.087848432e-05 )
( -0.0001987943979 0.0002032993943 1.556573989e-05 )
( -6.947909424e-05 6.990235124e-05 6.402635336e-06 )
( -3.144517905e-05 3.332621418e-05 3.122704129e-06 )
( -0.001381734968 0.001465615467 -1.088068075e-06 )
( -0.001379516092 0.001453238423 -5.284333383e-06 )
( -0.001618405688 0.001645853976 -1.689497549e-05 )
( -0.001483736327 0.001549179782 -8.20043806e-06 )
( -0.00148206111 0.001536648488 -1.143980444e-05 )
( -0.001810873626 0.001788417227 -2.731910718e-05 )
( -0.001903083757 0.001839029486 -3.30293733e-05 )
( -0.002077016747 0.002018230967 -3.596587339e-05 )
( -0.0004661753192 0.001528976951 -8.352834266e-05 )
( 0.007351715583 0.0003899988078 -0.000116014111 )
( 0.001378202694 0.001126817311 -9.682356904e-05 )
( 0.01437991019 3.381584247e-05 -0.000145764614 )
( 0.01871411689 9.615950694e-05 -0.0001650307386 )
( -0.001767044654 0.001884555328 -6.567100354e-05 )
( -0.002142457291 0.002069214359 -4.523481766e-05 )
( -0.00212000031 0.002010180382 -4.805470962e-05 )
( -0.002072692849 0.002027832437 -5.502813656e-05 )
( -0.002035721904 0.001915788627 -4.254754094e-05 )
( 0.02255802974 0.0003562723869 -0.0001584277197 )
( -0.001689921017 0.001679625129 -2.500650953e-05 )
( -0.001113038044 0.001184349414 2.753300123e-06 )
( -0.001117154723 0.001193477889 6.758023574e-06 )
( -0.000530185469 0.0005633811234 1.923564014e-05 )
( -0.0005221211468 0.0005523175932 1.656122731e-05 )
( -0.0007239888655 0.0007719901623 1.441981203e-05 )
( -0.0007142514223 0.0007603475242 1.032106775e-05 )
( -0.0003878367716 0.0004056223552 2.040067193e-05 )
( -0.0003790018964 0.0003975761938 1.822821287e-05 )
( -0.0002783389646 0.0002893033088 1.874468944e-05 )
( -0.0002703781938 0.0002783683303 1.703667658e-05 )
( -0.0001910684077 0.000195506349 1.448233525e-05 )
( -6.661164662e-05 6.664371904e-05 6.090532224e-06 )
( -0.0001212995412 0.0001224430744 1.0230935e-05 )
( -2.950090493e-05 3.158783147e-05 2.977563554e-06 )
( -0.001049062354 0.00110624067 -4.22700532e-06 )
( -0.001050710445 0.001098880544 -8.326880561e-06 )
( -0.001379229943 0.001400692388 -2.098342884e-05 )
( -0.001376263564 0.001411226811 -1.760717532e-05 )
( -0.00110001897 0.00114353816 -1.115525265e-05 )
( -0.001103436225 0.001139287604 -1.458567112e-05 )
( -0.001624197583 0.00157552294 -3.073225889e-05 )
( -0.001723496127 0.001631996827 -3.655284672e-05 )
( -0.001895297552 0.001795385964 -4.033703226e-05 )
( -0.001156610087 0.001551032998 -8.340982458e-05 )
( 0.01459767111 3.684027615e-05 -0.0001436471648 )
( 0.005599826574 0.0005023949197 -0.0001133094484 )
( 0.001145499176 0.001079319627 -0.0001002747376 )
( 0.01909570023 0.0001318385039 -0.0001643393625 )
( 0.02285208739 0.000416541181 -0.0001621983683 )
( -0.002051767427 0.001920909039 -5.802047599e-05 )
( -0.00173374312 0.001768977148 -7.11369139e-05 )
( -0.001939973328 0.00182863872 -6.475789269e-05 )
( -0.002047599992 0.001877794741 -4.436778181e-05 )
( -0.002041245112 0.001811318682 -5.044455247e-05 )
( -0.001924281009 0.001758375089 -4.336439088e-05 )
( 0.02475871518 0.0006087734364 -0.000116342504 )
( -0.001488168258 0.001493363641 -2.29059624e-05 )
( -0.001492465846 0.001484230743 -2.580920045e-05 )
( -0.0007418630412 0.0007840914768 2.135353498e-06 )
( -0.0007484217058 0.0007949019782 6.459359611e-06 )
( -0.0003651486477 0.0003857093106 1.616353802e-05 )
( -0.0003582850914 0.0003764737048 1.404912018e-05 )
( -0.0005080740084 0.000539823086 1.409805827e-05 )
( -0.0004995175987 0.0005304238875 1.027404687e-05 )
( -0.0002611446253 0.0002701513004 1.545607665e-05 )
( -0.0002547421027 0.0002647024521 1.38863661e-05 )
( -0.0001806568762 0.0001856502204 1.335244906e-05 )
( -0.0001748746145 0.0001777992438 1.213447558e-05 )
( -0.0001160101019 0.0001170908363 9.407331163e-06 )
( -2.813094943e-05 3.008957356e-05 2.787288622e-06 )
( -6.298912194e-05 6.341820699e-05 5.669226994e-06 )
( -0.0006916533457 0.0007256661775 -3.399650268e-06 )
( -0.0006882122252 0.0007175788051 -7.565882697e-06 )
( -0.001056360081 0.001064651064 -2.399037658e-05 )
( -0.001052216161 0.001072204323 -2.116783253e-05 )
( -0.0007280532154 0.000753867731 -1.064986373e-05 )
( -0.0007273415104 0.0007464855444 -1.387185785e-05 )
( -0.001413029502 0.001387716038 -2.887764458e-05 )
( -0.001452805591 0.001412600745 -3.116855805e-05 )
( -0.00152345805 0.001458790968 -3.443856258e-05 )
( -0.001535358489 0.001455194899 -3.649613427e-05 )
( -0.001683844603 0.001552467467 -4.306234769e-05 )
( -0.001504701911 0.001549891196 -8.258646267e-05 )
( -0.001802953193 0.001699005254 -7.148267468e-05 )
( -0.001018126379 0.001411689329 -9.119381139e-05 )
( 0.01538900658 9.168982797e-05 -0.0001505795808 )
( 0.0200047642 0.0002223450283 -0.0001695845858 )
( 0.007477125153 0.0002348548296 -0.0001157728111 )
( 0.003596052062 0.0005507391179 -0.0001102241731 )
( 8.677560254e-05 0.001130252611 -0.0001013050642 )
( 0.02321036346 0.0004894973245 -0.0001680958667 )
( 0.02500852011 0.0006858033594 -0.000122555939 )
( -0.002016261686 0.001777040772 -5.913397035e-05 )
( -0.001975543331 0.001673289342 -6.452031084e-05 )
( -0.001908111386 0.001697274623 -4.554018233e-05 )
( -0.001970609184 0.001693699276 -5.22791488e-05 )
( -0.00177821063 0.001590322936 -4.497474947e-05 )
( 0.02630225942 0.0008521049749 -2.461442818e-05 )
( -0.001109081553 0.001107057673 -2.568169293e-05 )
( -0.001125068869 0.001113910927 -2.657220102e-05 )
( -0.000482788455 0.000507393037 1.562472789e-06 )
( -0.000487646641 0.000517832581 5.670290648e-06 )
( -0.000244309369 0.0002561924048 1.238452933e-05 )
( -0.0002389039291 0.000249006087 1.082199014e-05 )
( -0.0003474102414 0.0003671434242 1.17237405e-05 )
( -0.0003384985612 0.0003578823816 8.715564945e-06 )
( -0.000168716535 0.000172564949 1.098066605e-05 )
( -0.0001646998571 0.0001694462117 9.95992923e-06 )
( -0.0001090681253 0.0001105663032 8.68835923e-06 )
( -0.0001052896405 0.0001056359906 7.849575013e-06 )
( -6.000428039e-05 6.03251101e-05 5.212309134e-06 )
( -2.644825508e-05 2.854453851e-05 2.682126478e-06 )
( -0.0004727662599 0.0004963545944 -1.620380203e-06 )
( -0.0004708137712 0.0004911163123 -5.989951205e-06 )
( -0.000688242144 0.0006920449086 -2.181001582e-05 )
( -0.0006871792721 0.0006980248145 -1.903336306e-05 )
( -0.0004626215668 0.0004802721087 -9.317709555e-06 )
( -0.0004637368256 0.0004744869075 -1.265664923e-05 )
( -0.001126110088 0.001100477763 -3.011420813e-05 )
( -0.001148473006 0.001109858393 -3.215231482e-05 )
( -0.001182892011 0.001129703713 -3.503907647e-05 )
( -0.001196947531 0.001129810465 -3.676922643e-05 )
( -0.001502841013 0.001404839684 -4.040956992e-05 )
( -0.001516675577 0.001400301117 -4.207484017e-05 )
( -0.001843192033 0.001594385132 -7.316222764e-05 )
( -0.001732682227 0.0014758287 -8.172188245e-05 )
( -0.0012048973 0.001385590527 -9.119678725e-05 )
( 0.0139903985 9.979244351e-05 -0.0001404668583 )
( 0.02132553421 0.0003725163115 -0.0001829919347 )
( 0.02372010052 0.0005974638625 -0.0001662055438 )
( 0.007484688424 0.0001936079643 -0.000112954418 )
( 0.002861302346 0.0005684089847 -0.0001096750202 )
( -0.0002506176243 0.001072994666 -0.0001046056423 )
( 0.02537917718 0.0007939679781 -0.000121598343 )
( 0.026409477 0.0009255462792 -2.711314482e-05 )
( -0.001965495059 0.001635135151 -5.915711517e-05 )
( -0.001970716286 0.001578701776 -6.583206414e-05 )
( -0.001752938377 0.001512663206 -4.76001369e-05 )
( -0.001860376913 0.00154516811 -5.433329716e-05 )
( -0.001607127953 0.001436444931 -4.479510972e-05 )
( -0.00158594118 0.001437501982 -4.319384607e-05 )
( 0.02697043307 0.0009499883745 6.062538887e-05 )
( -0.0007286089822 0.000724923797 -2.330350435e-05 )
( -0.0007324460312 0.0007201908156 -2.610340925e-05 )
( -0.0003218812926 0.0003374241642 9.455185364e-07 )
( -0.0003271643945 0.0003469138755 4.605592494e-06 )
( -0.0001575544011 0.000163823468 8.940317457e-06 )
( -0.000153524772 0.0001585777936 8.102430002e-06 )
( -0.0002294051956 0.0002408324217 9.372716704e-06 )
( -0.0002220548922 0.0002333596349 6.854098501e-06 )
( -0.0001018897528 0.0001030358617 7.189612916e-06 )
( -9.986871737e-05 0.0001016582755 6.46136823e-06 )
( -5.600856093e-05 5.668787708e-05 4.743819773e-06 )
( -5.405971024e-05 5.421218884e-05 4.367112069e-06 )
( -2.502294774e-05 2.712159221e-05 2.350187287e-06 )
( -0.0003148746327 0.0003300862736 -2.566327339e-06 )
( -0.0003108996607 0.0003240017977 -5.684909411e-06 )
( -0.000462467171 0.0004661162966 -1.815745418e-05 )
( -0.0004621325061 0.0004707802145 -1.538820288e-05 )
( -0.000303483248 0.0003155485902 -8.83476423e-06 )
( -0.0003038855502 0.0003110493708 -1.162233821e-05 )
( -0.0007088987622 0.0006895011174 -2.89761374e-05 )
( -0.0007463632501 0.0007197003579 -3.131115227e-05 )
( -0.0007532131276 0.0007156365318 -3.37627207e-05 )
( -0.00076415902 0.00071680767 -3.566098894e-05 )
( -0.001220473554 0.001135470695 -3.932946856e-05 )
( -0.001236292068 0.001135659753 -4.110582086e-05 )
( -0.001970884157 0.001536501222 -7.282866136e-05 )
( -0.001852526329 0.001456072903 -8.279960457e-05 )
( -0.001273499685 0.001318350318 -9.457203851e-05 )
( 0.01266797725 -2.09580412e-06 -0.0001260945137 )
( 0.02234821022 0.0005202699103 -0.0001942451636 )
( 0.01703455299 0.0001331584645 -0.000156003618 )
( 0.0245412495 0.000739315059 -0.0001769253722 )
( 0.02583995461 0.0009292147006 -0.0001107495555 )
( 0.006946984679 0.0001425749797 -0.0001058098424 )
( 0.002032052958 0.0006006190088 -0.0001107285279 )
( 8.784599049e-05 0.0009209517739 -0.0001103357499 )
( -0.0013593029 0.001296032104 -9.585318185e-05 )
( -0.001020214288 0.00113376847 -0.0001049418206 )
( 0.02652532235 0.001006581355 -2.800343827e-05 )
( 0.027012242 0.001012274646 6.206449325e-05 )
( -0.001847308362 0.001469235518 -6.040003063e-05 )
( -0.001926257042 0.001469584531 -6.695357297e-05 )
( -0.001586082857 0.001392113278 -4.660063496e-05 )
( -0.001608930645 0.001387593802 -4.909837298e-05 )
( -0.001681127818 0.001416312298 -5.345524551e-05 )
( -0.001706260256 0.001411161618 -5.550019341e-05 )
( -0.001274787821 0.001135925413 -4.576285937e-05 )
( -0.001252273796 0.001131535857 -4.355129204e-05 )
( 0.02733664215 0.000993832713 0.0001275436953 )
( -0.0004587415315 0.0004580792447 -2.1112799e-05 )
( -0.0004640133993 0.0004545083793 -2.36411579e-05 )
( -0.0002081935818 0.0002172870009 -9.346032925e-08 )
( -0.0002118261182 0.0002238595916 3.604426638e-06 )
( -9.547117952e-05 9.826143651e-05 5.959580903e-06 )
( -9.23349362e-05 9.437132394e-05 6.153844424e-06 )
( -0.0001462835353 0.0001521987433 7.644001926e-06 )
( -0.0001407219097 0.0001466538815 4.781044481e-06 )
( -5.259328827e-05 5.33626735e-05 3.99965802e-06 )
( -5.196147686e-05 5.303251965e-05 3.652884743e-06 )
( -2.31068625e-05 2.535430212e-05 2.185452558e-06 )
( -2.222232069e-05 2.432365363e-05 1.980422212e-06 )
( -0.0002020742249 0.0002112337388 -3.085602202e-06 )
( -0.0001987059077 0.0002065178414 -5.646164936e-06 )
( -0.0003010425717 0.0003039317962 -1.655071355e-05 )
( -0.0003012738307 0.000307676848 -1.421790876e-05 )
( -0.0001924238604 0.0002000785171 -8.042310583e-06 )
( -0.0001922720694 0.0001967966527 -1.057998361e-05 )
( -0.0004674575757 0.0004547295393 -2.605025293e-05 )
( -0.0004733669048 0.000455127476 -2.834146107e-05 )
( -0.0004761503951 0.0004534851178 -3.051802923e-05 )
( -0.0004881716159 0.0004560015805 -3.243134779e-05 )
( -0.0007807925576 0.0007246553432 -3.805978486e-05 )
( -0.0007953832392 0.0007297754637 -4.001983689e-05 )
( -0.001960237511 0.001452044584 -7.576437201e-05 )
( -0.001873678644 0.001411303529 -8.505934966e-05 )
( 0.01224937662 -4.87005309e-06 -0.0001197044767 )
( 0.02494425327 0.000862940331 -0.0001815667201 )
( 0.0218841508 0.0005365869729 -0.0001947284909 )
( 0.01743456721 0.0001672351063 -0.0001577573712 )
( 0.02617464028 0.001054959721 -0.0001037384936 )
( 0.02674026601 0.001114762505 -1.845321458e-05 )
( 0.005973227788 0.0001911371364 -0.0001015442394 )
( -0.000108176464 0.0009132722626 -0.0001122120375 )
( 0.0008165339823 0.0007000725018 -0.0001127698706 )
( 0.002939304803 0.0004372832191 -0.0001068547717 )
( -0.001711527002 0.001295938389 -9.64800056e-05 )
( -0.001332534477 0.001151297358 -0.0001056671681 )
( 0.02705061249 0.001099148183 6.543521886e-05 )
( -0.001726365066 0.00136969192 -6.080239473e-05 )
( -0.001701454748 0.001375001273 -5.818756108e-05 )
( -0.001782595995 0.001379050198 -6.469260552e-05 )
( -0.001812199363 0.001372911851 -6.780624244e-05 )
( -0.001311555505 0.001146458671 -4.82659525e-05 )
( -0.001336004469 0.001148266834 -5.104672164e-05 )
( -0.001360594062 0.001140964217 -5.468249583e-05 )
( -0.001390240854 0.001143361093 -5.64585207e-05 )
( -0.0008341345238 0.0007419800386 -4.524998076e-05 )
( -0.0008129935595 0.0007335905684 -4.278613778e-05 )
( 0.02735411189 0.001145525021 0.000133362817 )
( -0.0002972510702 0.000297549268 -1.9133362e-05 )
( -0.0003013107344 0.0002947697649 -2.115800453e-05 )
( -0.0001298237185 0.0001345859055 -4.400416458e-07 )
( -0.0001331898384 0.0001398074382 2.252881814e-06 )
( -4.962412277e-05 5.125013922e-05 3.296291197e-06 )
( -4.801870455e-05 4.917783372e-05 3.49320544e-06 )
( -8.747557877e-05 9.005290485e-05 5.826528195e-06 )
( -8.392571908e-05 8.64751637e-05 3.49348079e-06 )
( -2.186135134e-05 2.426206811e-05 1.893774083e-06 )
( -2.178296199e-05 2.434385897e-05 1.695307446e-06 )
( -0.0001251941576 0.0001301255688 -2.87692751e-06 )
( -0.0001226566819 0.000126800529 -4.869152235e-06 )
( -0.0001887558756 0.0001908501144 -1.445440557e-05 )
( -0.0001893922017 0.000193897693 -1.256282485e-05 )
( -0.0001178949969 0.0001222573774 -6.709117315e-06 )
( -0.0001174442659 0.0001200247061 -8.694953067e-06 )
( -0.0003031640663 0.0002946309105 -2.317300095e-05 )
( -0.0003078613372 0.0002955688105 -2.514089829e-05 )
( -0.0003098694433 0.0002951099887 -2.696130286e-05 )
( -0.0003199314815 0.0002980982536 -2.85754395e-05 )
( -0.0004989238805 0.0004630591138 -3.455447586e-05 )
( -0.0005127100158 0.0004699469137 -3.66633285e-05 )
( -0.001910996274 0.001396539272 -7.840633043e-05 )
( -0.001831020927 0.001345546683 -7.281383296e-05 )
( -0.001884713653 0.001345488359 -8.689034439e-05 )
( 0.01214679331 1.717093619e-05 -0.0001132875259 )
( 0.02534213848 0.001006056555 -0.0001854641596 )
( 0.02635984123 0.001165637863 -0.0001027456601 )
( 0.02390393056 0.000798839028 -0.0002132865484 )
( 0.02181004919 0.000530465506 -0.0002006539289 )
( 0.01762401871 0.0001813494891 -0.0001587606675 )
( 0.02682955004 0.001210062066 -1.48860945e-05 )
( 0.02708910778 0.00117019983 6.959235179e-05 )
( 0.007516178768 9.605254309e-05 -9.638537449e-05 )
( 0.003930849489 0.0003268065921 -9.681282972e-05 )
( 0.002478228649 0.0004862558562 -0.0001064673124 )
( -0.0007559716469 0.0009729185258 -0.0001139481683 )
( 0.0003998058673 0.0007408140809 -0.0001116817293 )
( -0.001770675532 0.001261394937 -9.708029393e-05 )
( -0.001545018749 0.001157883438 -0.0001066350524 )
( -0.001463435707 0.001152633806 -6.150439731e-05 )
( -0.001430542558 0.001148590003 -5.934665387e-05 )
( -0.001495766453 0.001149369637 -6.501733151e-05 )
( -0.001531301765 0.001150600612 -6.791072519e-05 )
( -0.000861976936 0.000758115435 -4.827007797e-05 )
( -0.0008844552212 0.0007644380676 -5.106475874e-05 )
( -0.000909061986 0.0007653693901 -5.414740008e-05 )
( -0.000934971089 0.0007682081778 -5.669114034e-05 )
( -0.0005452980986 0.0004868225078 -4.18278978e-05 )
( -0.0005242047482 0.0004760672455 -3.914474291e-05 )
( 0.02736627497 0.001325656311 0.0001383226918 )
( -0.0001854392176 0.0001859443582 -1.638554022e-05 )
( -0.000188392034 0.0001839994511 -1.808243906e-05 )
( -7.640662807e-05 7.841383922e-05 -6.198310416e-07 )
( -7.89639962e-05 8.205619088e-05 8.270877743e-07 )
( -2.077436875e-05 2.352610682e-05 1.551994387e-06 )
( -2.012757068e-05 2.269314973e-05 1.498660026e-06 )
( -4.493739834e-05 4.641044507e-05 4.058949344e-06 )
( -4.325677219e-05 4.465364327e-05 1.921002195e-06 )
( -7.337041461e-05 7.553875184e-05 -2.31262743e-06 )
( -7.17363946e-05 7.346594793e-05 -3.569730325e-06 )
( -0.0001139873857 0.0001152482 -1.150007483e-05 )
( -0.0001148525553 0.0001177059457 -1.014076588e-05 )
( -6.853050581e-05 7.05585262e-05 -4.868724773e-06 )
( -6.806995953e-05 6.919252337e-05 -6.152792594e-06 )
( -0.0001895427413 0.000183997865 -1.961299495e-05 )
( -0.0001934026368 0.0001853911672 -2.11658953e-05 )
( -0.0001951726736 0.0001859301265 -2.258346103e-05 )
( -0.0002035119833 0.0001893180015 -2.378061981e-05 )
( -0.000328194903 0.0003042407625 -3.024517719e-05 )
( -0.0003394890518 0.00031121145 -3.209686838e-05 )
( -0.001825890504 0.001314541674 -7.625458238e-05 )
( -0.001816946315 0.001294330694 -7.91070197e-05 )
( -0.001578183146 0.001146772993 -7.275660755e-05 )
( -0.001853466034 0.001277487259 -8.664101915e-05 )
( -0.001834542374 0.001285168109 -8.322090434e-05 )
( 0.01075459272 3.109993486e-05 -9.926088387e-05 )
( 0.01434489153 5.01266768e-05 -0.0001232287032 )
( 0.00708492659 0.0001029280102 -8.848993457e-05 )
( 0.02545738406 0.001111961319 -0.0001925799879 )
( 0.02653448656 0.001292788889 -0.0001010013584 )
( 0.02691174485 0.001315137721 -1.090077694e-05 )
( 0.02426331863 0.0008988565532 -0.0002180396696 )
( 0.02190539986 0.0005844000261 -0.0002059233666 )
( 0.01761573553 0.000238951543 -0.0001572929323 )
( 0.02712269872 0.001274395734 7.36354923e-05 )
( 0.001111061894 0.0006250476581 -0.0001061466246 )
( 0.003496869002 0.0003349164035 -9.034032701e-05 )
( -0.0009079443989 0.0009762145928 -0.0001148648007 )
( -0.000103088365 0.0008052696357 -0.0001121382375 )
( -0.001848638873 0.001235076459 -9.564140782e-05 )
( -0.001846035128 0.001254154136 -9.177313768e-05 )
( -0.001804327941 0.001203421154 -0.0001006919047 )
( -0.001760877436 0.001172751421 -0.0001046470643 )
( -0.001002799603 0.0007891820278 -6.209161074e-05 )
( -0.0009703829419 0.000781238894 -5.93449513e-05 )
( -0.001044496428 0.000800336129 -6.522483454e-05 )
( -0.001090035657 0.0008162632585 -6.867072079e-05 )
( -0.0005652154214 0.0005029924214 -4.479002382e-05 )
( -0.0005852463655 0.0005115324166 -4.765774793e-05 )
( -0.0006013543461 0.0005132245133 -5.049899482e-05 )
( -0.0006262336974 0.000517333101 -5.288830289e-05 )
( -0.0003652753367 0.0003282678081 -3.672202365e-05 )
( -0.000348374364 0.0003176644095 -3.433364327e-05 )
( 0.02736665495 0.001548092463 0.0001418572501 )
( 0.0271552857 0.001362644834 7.774060214e-05 )
( -0.0001113220205 0.0001116893036 -1.293649257e-05 )
( -0.0001134669728 0.0001106362324 -1.415084444e-05 )
( -3.879725773e-05 3.997542444e-05 -4.986051181e-07 )
( -4.026107126e-05 4.200539479e-05 5.794095159e-07 )
( -1.875971975e-05 2.14264528e-05 1.804542535e-06 )
( -1.787736983e-05 2.052095442e-05 9.991275647e-07 )
( -3.708732038e-05 3.845411629e-05 -1.346430849e-06 )
( -3.628998093e-05 3.738688247e-05 -2.087655275e-06 )
( -6.52203089e-05 6.562936323e-05 -8.003371477e-06 )
( -6.610346463e-05 6.748928718e-05 -7.134462521e-06 )
( -3.450376244e-05 3.58765792e-05 -2.763461225e-06 )
( -3.426021067e-05 3.51536728e-05 -3.467958322e-06 )
( -0.000114496368 0.000111077803 -1.521311606e-05 )
( -0.000117791009 0.0001128758304 -1.634819819e-05 )
( -0.0001195800214 0.0001141617686 -1.738521314e-05 )
( -0.0001263090089 0.0001177517188 -1.825954678e-05 )
( -0.0002101052232 0.0001948111021 -2.51352194e-05 )
( -0.0002194591216 0.0002014868078 -2.668281741e-05 )
( -0.001612252323 0.001145794755 -7.576607459e-05 )
( -0.001631233958 0.001141667715 -7.846258814e-05 )