/*--------------------------------*- C++ -*----------------------------------*\
  =========                 |
  \\      /  F ield         | OpenFOAM: The Open Source CFD Toolbox
   \\    /   O peration     | Website:  https://openfoam.org
    \\  /    A nd           | Version:  8
     \\/     M anipulation  |
\*---------------------------------------------------------------------------*/






FoamFile
{
    version     2.0;
    format      ascii;
    class       volVectorField;
    location    "0";
    object      UDDES;
}
// * * * * * * * * * * * * * * * * * * * * * * * * * * * * * * * * * * * * * //

dimensions      [0 1 -1 0 0 0 0];


internalField   nonuniform List<vector> 
19484
(
( 0.01104784757 0.0005352693843 -0.0001285198523 )
( 0.01034875028 0.0004655650991 -0.000147955463 )
( 0.01108374633 0.0004636271042 -0.0001225589222 )
( 0.009801791981 0.000413494854 -0.0001549753943 )
( 0.01040221285 0.0004040107597 -0.0001447687828 )
( 0.009796191007 0.0004179954703 -0.0001548396103 )
( 0.01144080237 0.0004247360048 -0.0001050828287 )
( 0.01111405157 0.0003972897248 -0.0001178514358 )
( 0.009864892811 0.0003639573697 -0.0001555917697 )
( 0.009379502386 0.000361408951 -0.0001563733094 )
( 0.01044778433 0.0003481825697 -0.0001422672067 )
( 0.009869583882 0.0003599204647 -0.0001555669442 )
( 0.009342752397 0.0003805902088 -0.0001537287899 )
( 0.01146947779 0.0002912969794 -0.0001036498579 )
( 0.01113745756 0.0003354483633 -0.0001153775083 )
( 0.009425427765 0.0003315664653 -0.0001579748205 )
( 0.008736398071 0.0003037661372 -0.0001500830549 )
( 0.008734805509 0.0003044074401 -0.000149974192 )
( 0.009928030893 0.0003115445725 -0.0001555114723 )
( 0.01048668101 0.000297408289 -0.0001423651556 )
( 0.009923963808 0.0003152243735 -0.0001554408809 )
( 0.009456807747 0.0003149225377 -0.0001586333528 )
( 0.008682535961 0.0003285731364 -0.0001450065756 )
( 0.008684222586 0.0003279085213 -0.0001451813878 )
( 0.01115350518 0.0002770934661 -0.0001153967605 )
( 0.01147337351 0.0001752124517 -0.0001065015531 )
( 0.00878253486 0.0002876381623 -0.000153148052 )
( 0.008783957921 0.0002870364697 -0.0001532097813 )
( 0.008211170323 0.0002615096164 -0.0001424712682 )
( 0.00818552915 0.0002722706995 -0.0001398676395 )
( 0.009974248707 0.00027163903 -0.0001573425834 )
( 0.009523166344 0.0002729457337 -0.0001591775799 )
( 0.01051715296 0.0002514732478 -0.0001450570417 )
( 0.009977700189 0.0002684099891 -0.0001576295472 )
( 0.00949602481 0.0002880808315 -0.0001587460138 )
( 0.008828988299 0.0002653660486 -0.000154895024 )
( 0.008827638812 0.0002659446618 -0.000154869369 )
( 0.008125508204 0.0002916931408 -0.0001334439003 )
( 0.00815317966 0.0002800501243 -0.0001367790828 )
( 0.0111628091 0.0002226587676 -0.0001177482045 )
( 0.01145512052 7.218948303e-05 -0.0001056194378 )
( 0.01116612833 0.0001721270237 -0.0001214703007 )
( 0.008240851574 0.0002563670569 -0.0001446074602 )
( 0.008265111595 0.0002462270204 -0.0001463813678 )
( 0.00756072998 0.0002199238224 -0.0001291940571 )
( 0.007532923948 0.0002241832844 -0.000126620449 )
( 0.009557543322 0.0002484598663 -0.0001605528669 )
( 0.00890863128 0.000230694146 -0.0001563519763 )
( 0.008907468989 0.0002312020515 -0.0001563389233 )
( 0.01001817733 0.0002302111825 -0.0001622347336 )
( 0.01001545135 0.000233124505 -0.0001618740498 )
( 0.01053933334 0.0002085420274 -0.0001494287571 )
( 0.009579937905 0.0002353271266 -0.000162222932 )
( 0.008868488483 0.0002510320628 -0.0001557329961 )
( 0.00886968337 0.0002504931472 -0.0001557429496 )
( 0.008314835839 0.0002292099089 -0.0001489056012 )
( 0.008293143474 0.0002394715993 -0.0001477846527 )
( 0.007465768605 0.0002397514472 -0.000119285367 )
( 0.007495390251 0.0002345242829 -0.0001223663421 )
( 0.01141606178 -2.273110113e-05 -0.0001001555866 )
( 0.01115586236 7.907459803e-05 -0.0001292288653 )
( 0.01116379723 0.0001245953026 -0.0001253828814 )
( 0.01055302192 0.0001683818409 -0.0001569848246 )
( 0.00759576261 0.0002109468041 -0.0001322845346 )
( 0.007622005418 0.0002070184128 -0.0001343725016 )
( 0.007070374675 0.0001859979093 -0.0001178804305 )
( 0.007037057541 0.00019481653 -0.0001146034629 )
( 0.008942916989 0.0002182313328 -0.0001572157198 )
( 0.008943945169 0.0002177453134 -0.000157249422 )
( 0.008404235356 0.0002001764806 -0.0001514886244 )
( 0.008385173045 0.0002094211522 -0.000150953405 )
( 0.01004698779 0.0001975685154 -0.0001686059113 )
( 0.009625623003 0.000203191812 -0.0001685655734 )
( 0.009607592598 0.0002147513442 -0.0001656411332 )
( 0.01004902087 0.0001947192068 -0.0001692581136 )
( 0.008977068588 0.0002001887478 -0.0001590160391 )
( 0.008976096287 0.0002006081049 -0.0001589423337 )
( 0.008340232074 0.000224714764 -0.0001497862977 )
( 0.008360990323 0.0002152996894 -0.0001504094253 )
( 0.007678435184 0.0001932940941 -0.0001382354531 )
( 0.007654942572 0.0001976409112 -0.0001365966164 )
( 0.006961758714 0.0002079694241 -0.000106951069 )
( 0.007000005804 0.0001986403222 -0.0001109706063 )
( 0.0113551151 -0.0001098850043 -8.42313093e-05 )
( 0.01112218387 -5.05355365e-06 -0.0001354006527 )
( 0.01114218123 3.579846089e-05 -0.0001329286024 )
( 0.01055930369 9.473005048e-05 -0.0001734988618 )
( 0.0105598066 0.0001305236365 -0.0001646825549 )
( 0.01007087622 0.0001609155443 -0.0001780438615 )
( 0.01006946061 0.0001636424131 -0.0001773654658 )
( 0.007105133962 0.0001833454007 -0.0001209203401 )
( 0.007136579603 0.0001750007505 -0.0001235367672 )
( 0.0067498344 0.0001703062298 -0.0001107772696 )
( 0.006713880226 0.0001765269699 -0.000107492473 )
( 0.008426869288 0.0001966575946 -0.0001520390506 )
( 0.008444590494 0.0001877748728 -0.0001526521519 )
( 0.007778211031 0.0001691911893 -0.0001426290401 )
( 0.007759913336 0.0001727232884 -0.0001418241736 )
( 0.00964735914 0.0001837459859 -0.0001724959438 )
( 0.009032846428 0.0001748440991 -0.0001655383676 )
( 0.009032069705 0.0001752150856 -0.0001654344378 )
( 0.009004610591 0.0001905362296 -0.0001619626273 )
( 0.009005445056 0.0001901470096 -0.0001620736439 )
( 0.009660806507 0.0001731571247 -0.000177136797 )
( 0.008480661549 0.0001744185574 -0.0001545814885 )
( 0.008465440013 0.0001826340886 -0.0001535882329 )
( 0.007709119003 0.0001852263376 -0.0001396915904 )
( 0.007731731515 0.0001816713921 -0.0001408023527 )
( 0.00719789695 0.0001637878158 -0.0001279681746 )
( 0.00716902595 0.00017198571 -0.0001259925193 )
( 0.0066381488 0.0001886062382 -0.0001000603952 )
( 0.00667639263 0.0001817919692 -0.0001038636619 )
( 0.01106260438 -8.155101386e-05 -0.000129274893 )
( 0.01109547075 -4.329228977e-05 -0.0001347849757 )
( 0.0112758968 -0.0001885972015 -5.751297067e-05 )
( 0.01053526904 3.176884638e-05 -0.000190976396 )
( 0.01055108197 6.158237375e-05 -0.0001826019434 )
( 0.01009055413 9.994504944e-05 -0.0001971081074 )
( 0.01009036694 0.0001022941651 -0.0001962441602 )
( 0.01008404791 0.0001315059781 -0.0001871809945 )
( 0.01008488797 0.000128949614 -0.0001878596668 )
( 0.00968676433 0.0001441234635 -0.0001878118928 )
( 0.009676929563 0.0001540076628 -0.0001833332062 )
( 0.006785051897 0.0001660047128 -0.0001138339503 )
( 0.006818796974 0.00016028143 -0.0001166948277 )
( 0.005205085501 0.0001035956229 -8.7359178e-05 )
( 0.005164213944 0.0001070380822 -8.430167509e-05 )
( 0.007804453373 0.0001615413639 -0.0001435803424 )
( 0.007823918015 0.0001582686673 -0.0001444768277 )
( 0.007302202284 0.0001426581439 -0.0001336138375 )
( 0.007280793507 0.0001505705586 -0.0001326137281 )
( 0.009054527618 0.0001666437602 -0.0001687182812 )
( 0.009055164643 0.0001662866416 -0.0001688623161 )
( 0.008543445729 0.00015383547 -0.0001611504122 )
( 0.008530692197 0.0001606582955 -0.0001598582749 )
( 0.008501826786 0.0001725449401 -0.0001562179968 )
( 0.008513280191 0.0001647747704 -0.0001578047668 )
( 0.009076185524 0.0001514393807 -0.0001738994906 )
( 0.009075579233 0.0001518274366 -0.0001737396233 )
( 0.007868046872 0.0001479272614 -0.0001469197741 )
( 0.007847844623 0.0001504663524 -0.0001458397892 )
( 0.007228238508 0.0001614073553 -0.0001298542047 )
( 0.007255263627 0.0001534122275 -0.0001313347602 )
( 0.006883295719 0.0001507294073 -0.0001212732604 )
( 0.006851919927 0.0001561787212 -0.0001190269759 )
( 0.005078540184 0.0001147319272 -7.829486276e-05 )
( 0.005122003611 0.0001106898708 -8.150986832e-05 )
( 0.01048449334 -2.544155723e-05 -0.0002040093241 )
( 0.01102433633 -0.0001176991791 -0.0001202282801 )
( 0.01051340811 3.032441782e-06 -0.0001989567827 )
( 0.01098211948 -0.0001516588527 -0.0001085203621 )
( 0.0111810416 -0.0002555820683 -2.534480336e-05 )
( 0.01007700618 5.067902384e-05 -0.0002158986026 )
( 0.01007803064 5.255957512e-05 -0.0002153312671 )
( 0.01008824538 7.574805204e-05 -0.0002064973814 )
( 0.01008770429 7.375487621e-05 -0.000207152596 )
( 0.009712936357 9.375980881e-05 -0.0002065370354 )
( 0.009710031562 0.0001019094634 -0.0002026749717 )
( 0.009697876871 0.0001265975006 -0.0001927221747 )
( 0.009703916498 0.000117736352 -0.0001969016594 )
( 0.009109635837 0.0001288424828 -0.000183887445 )
( 0.009109184146 0.0001291722292 -0.0001837112504 )
( 0.009093597531 0.0001425493101 -0.0001795005519 )
( 0.009094079956 0.0001421898196 -0.0001796752476 )
( 0.005244691856 0.0001007804167 -9.005868196e-05 )
( 0.005283265375 9.786653391e-05 -9.270460578e-05 )
( 0.004295276478 7.290754002e-05 -7.794831618e-05 )
( 0.004253985826 7.535907207e-05 -7.547831046e-05 )
( 0.007325734012 0.0001404932409 -0.0001347183425 )
( 0.007348617539 0.0001329187799 -0.0001359526359 )
( 0.006996483542 0.0001319334406 -0.0001275450777 )
( 0.006972027011 0.0001373592677 -0.0001263021259 )
( 0.008558310568 0.0001525660191 -0.000162700293 )
( 0.00856940262 0.0001459091291 -0.0001640547562 )
( 0.007937035523 0.0001312969835 -0.0001540246594 )
( 0.007922180928 0.0001331054955 -0.0001522807288 )
( 0.007890295237 0.0001424310904 -0.0001487499976 )
( 0.00790559873 0.0001400024339 -0.0001503528329 )
( 0.008593354374 0.0001350563398 -0.0001693766681 )
( 0.008583130315 0.0001423378708 -0.0001669604972 )
( 0.00739305187 0.0001243655424 -0.000139123571 )
( 0.007372615859 0.000131037712 -0.0001375137654 )
( 0.006914121099 0.0001468397531 -0.0001232051727 )
( 0.006943402812 0.0001414319267 -0.000124917322 )
( 0.005356775597 9.267051792e-05 -9.74919094e-05 )
( 0.005320597906 9.541149484e-05 -9.515749116e-05 )
( 0.004167585168 8.096805686e-05 -7.000363985e-05 )
( 0.004211571999 7.797882427e-05 -7.264655869e-05 )
( 0.0100357905 4.850222467e-06 -0.0002370101138 )
( 0.01003781334 6.796090929e-06 -0.0002363245731 )
( 0.01044967212 -5.458407759e-05 -0.0002047878515 )
( 0.01006114297 2.973515257e-05 -0.0002259508619 )
( 0.0100595979 2.784699427e-05 -0.0002267415402 )
( 0.01040859614 -8.241535397e-05 -0.0002028188028 )
( 0.01093658712 -0.0001826903899 -9.483986651e-05 )
( 0.01106901653 -0.0003140312037 2.322355613e-06 )
( 0.01088765357 -0.0002107254259 -8.067395538e-05 )
( 0.009707015939 5.326455721e-05 -0.0002282164933 )
( 0.009710323066 5.973942098e-05 -0.0002231576509 )
( 0.00971433986 7.92433857e-05 -0.0002129273926 )
( 0.009713909589 7.192487828e-05 -0.000217562847 )
( 0.00915052928 8.875445201e-05 -0.0002044642315 )
( 0.009150334634 8.904299466e-05 -0.0002043005079 )
( 0.009142517112 0.0001012880675 -0.0001991406461 )
( 0.009142720141 0.0001009824482 -0.0001992902398 )
( 0.009122174233 0.0001211747876 -0.0001891640277 )
( 0.00912251696 0.0001208443573 -0.0001892891742 )
( 0.009134302847 0.0001078303394 -0.0001945086697 )
( 0.009133996442 0.0001081327573 -0.0001943679817 )
( 0.008632986806 0.0001169100724 -0.0001791469258 )
( 0.00862549711 0.0001231404312 -0.000177045833 )
( 0.008606065996 0.0001325166668 -0.0001721149165 )
( 0.008614965715 0.0001260094286 -0.0001740203588 )
( 0.004335273523 7.087994163e-05 -8.032155165e-05 )
( 0.004374188371 6.895658589e-05 -8.260644972e-05 )
( 0.003396726213 4.836038715e-05 -6.852126535e-05 )
( 0.003357532667 5.001274621e-05 -6.617222971e-05 )
( 0.007022882812 0.0001281768491 -0.0001287639461 )
( 0.007047779392 0.0001231341157 -0.0001301708689 )
( 0.00549013773 8.195986447e-05 -0.0001054556924 )
( 0.005458453204 8.474164497e-05 -0.0001037984184 )
( 0.00795468688 0.0001258903649 -0.0001556138304 )
( 0.007968379185 0.0001244464074 -0.0001571255125 )
( 0.007470896468 0.000110845438 -0.0001460340281 )
( 0.007453740574 0.0001167053124 -0.0001446290698 )
( 0.007417680696 0.0001239788689 -0.0001409142278 )
( 0.00743366126 0.0001177942468 -0.0001427724637 )
( 0.007999638095 0.0001168138187 -0.0001609187311 )
( 0.007984533906 0.000118919299 -0.0001590940665 )
( 0.007094656583 0.0001154463389 -0.0001334126573 )
( 0.007072023582 0.0001196619705 -0.0001317251154 )
( 0.005391758867 9.012571536e-05 -9.973943816e-05 )
( 0.005425677635 8.728948887e-05 -0.0001019468982 )
( 0.004448596854 6.540783215e-05 -8.699386672e-05 )
( 0.004411898088 6.718031364e-05 -8.499432442e-05 )
( 0.003275217721 5.38769782e-05 -6.117768498e-05 )
( 0.00331682479 5.187571878e-05 -6.413715164e-05 )
( 0.009672763757 1.490539398e-05 -0.0002561158035 )
( 0.01000730321 -1.680289461e-05 -0.0002434766066 )
( 0.009682136588 2.144191239e-05 -0.0002502253628 )
( 0.01000478026 -1.883655932e-05 -0.0002437939984 )
( 0.009700194933 4.015050581e-05 -0.0002357466292 )
( 0.009693818167 3.338978422e-05 -0.0002418053191 )
( 0.00996664539 -4.350124436e-05 -0.0002478790702 )
( 0.00996977184 -4.139835801e-05 -0.000247640739 )
( 0.01036350895 -0.000109207569 -0.0002003056579 )
( 0.0109958658 -0.0003444634203 1.298854932e-05 )
( 0.01077820733 -0.0002607792849 -6.004233728e-05 )
( 0.01083470602 -0.0002361799125 -6.840842252e-05 )
( 0.01031595003 -0.000130974513 -0.000197759291 )
( 0.00915966928 5.61281704e-05 -0.0002308720432 )
( 0.009159710258 5.636138667e-05 -0.0002306473616 )
( 0.009159311652 6.65809057e-05 -0.0002229970705 )
( 0.009159270674 6.634333113e-05 -0.0002232032421 )
( 0.009155048057 8.285100921e-05 -0.0002099732665 )
( 0.00915514119 8.257378067e-05 -0.0002101578721 )
( 0.009159008972 7.126721175e-05 -0.0002166326158 )
( 0.009158935398 7.15432252e-05 -0.0002164068574 )
( 0.008686880581 8.296778105e-05 -0.0002013229823 )
( 0.008682820015 8.896068903e-05 -0.0001985118142 )
( 0.008671496995 9.812635835e-05 -0.0001931717561 )
( 0.008676515892 9.206158575e-05 -0.0001955629996 )
( 0.008642828092 0.0001151619799 -0.0001820373291 )
( 0.00864990335 0.000108492306 -0.0001848674146 )
( 0.008664341643 9.912223322e-05 -0.0001904792298 )
( 0.008658476174 0.0001053187007 -0.0001878584007 )
( 0.008050117642 0.0001017349787 -0.0001710547367 )
( 0.008039479144 0.0001036351969 -0.0001683464943 )
( 0.008014695719 0.0001113461258 -0.0001633655775 )
( 0.008026721887 0.0001090630831 -0.0001656753593 )
( 0.003434820101 4.702351362e-05 -7.054224989e-05 )
( 0.003471856471 4.572136822e-05 -7.250758063e-05 )
( 0.002553316532 3.010565524e-05 -5.767227412e-05 )
( 0.002518323017 3.11605545e-05 -5.578091077e-05 )
( 0.005520805251 7.961179654e-05 -0.0001070633225 )
( 0.005550489295 7.70534898e-05 -0.0001087741184 )
( 0.004584661685 5.820481238e-05 -9.479097935e-05 )
( 0.004552131984 6.007285992e-05 -9.304951527e-05 )
( 0.00748991454 0.0001103350587 -0.0001479285711 )
( 0.007506251335 0.0001049254934 -0.0001493667951 )
( 0.007177510764 0.0001037075417 -0.000140661301 )
( 0.007158157881 0.0001068468264 -0.0001387752709 )
( 0.0071167727 0.0001129597294 -0.000135215203 )
( 0.00713801384 0.0001094524123 -0.0001370496029 )
( 0.007544557098 9.923687321e-05 -0.0001527046843 )
( 0.007526238449 0.0001043125158 -0.0001508522691 )
( 0.005606147461 7.272596122e-05 -0.0001122650501 )
( 0.005578876007 7.487445691e-05 -0.0001105465781 )
( 0.004484146368 6.372786447e-05 -8.913619968e-05 )
( 0.004518688656 6.180983473e-05 -9.117816808e-05 )
( 0.003542789258 4.347317736e-05 -7.641075354e-05 )
( 0.003507809713 4.460037599e-05 -7.455438026e-05 )
( 0.002444889862 3.366045712e-05 -5.163830429e-05 )
( 0.002482220065 3.233172902e-05 -5.374314787e-05 )
( 0.009139004163 2.705014049e-05 -0.0002662424813 )
( 0.009139277972 2.730343476e-05 -0.0002659765305 )
( 0.009657558985 1.505716e-06 -0.0002622329048 )
( 0.009146458469 3.714545528e-05 -0.0002570366778 )
( 0.00914619863 3.691746315e-05 -0.0002573356323 )
( 0.009645442478 -5.508853519e-06 -0.0002665199863 )
( 0.009156897664 5.141069414e-05 -0.0002386945416 )
( 0.00915676821 5.117341789e-05 -0.0002389404399 )
( 0.009153476916 4.121252277e-05 -0.0002475816873 )
( 0.009153627791 4.144726336e-05 -0.0002472824708 )
( 0.009926286526 -6.476553972e-05 -0.0002517723187 )
( 0.009609626606 -2.627977665e-05 -0.0002735374146 )
( 0.009625045583 -1.869218795e-05 -0.0002701166086 )
( 0.009922934696 -6.656112964e-05 -0.0002521326533 )
( 0.0108558163 -0.0003943748015 2.07385383e-05 )
( 0.010717161 -0.0002833174949 -5.54834005e-05 )
( 0.01065200195 -0.0003045448393 -5.410385711e-05 )
( 0.01021198928 -0.0001690618083 -0.0001959392976 )
( 0.01026589517 -0.0001512621238 -0.0001958546636 )
( 0.009877143428 -8.588811761e-05 -0.000255837047 )
( 0.009880579077 -8.440890815e-05 -0.0002555395768 )
( 0.008707491681 5.617363058e-05 -0.0002306010283 )
( 0.008709330112 6.130013207e-05 -0.0002266329102 )
( 0.008703717962 6.861266593e-05 -0.0002183022152 )
( 0.008705045097 6.354483048e-05 -0.0002219396847 )
( 0.008691946045 8.227329818e-05 -0.0002045902365 )
( 0.008695106953 7.673752407e-05 -0.0002074496006 )
( 0.008701248094 6.87737338e-05 -0.000214348649 )
( 0.008699305356 7.396734873e-05 -0.0002112975781 )
( 0.008122733794 7.43671917e-05 -0.0001947841956 )
( 0.008116113953 7.619692769e-05 -0.0001920299546 )
( 0.008100238629 8.322297072e-05 -0.0001865157683 )
( 0.00810795743 8.148988127e-05 -0.0001887065155 )
( 0.008061924949 9.706628043e-05 -0.000174391811 )
( 0.008071526885 9.510358359e-05 -0.0001769272203 )
( 0.00809074007 8.784663078e-05 -0.0001829149405 )
( 0.008082241751 8.957224782e-05 -0.0001805761858 )
( 0.007605309132 8.643746696e-05 -0.0001624968718 )
( 0.007592810318 9.154886357e-05 -0.0001596060756 )
( 0.007563602179 9.82875863e-05 -0.0001545768901 )
( 0.007577652112 9.282533574e-05 -0.0001568747248 )
( 0.002587173833 2.92668683e-05 -5.938449976e-05 )
( 0.00262008654 2.849388329e-05 -6.097137157e-05 )
( 0.001811803901 1.740360676e-05 -4.56432208e-05 )
( 0.001782954088 1.800060454e-05 -4.407476808e-05 )
( 0.004616169725 5.65660157e-05 -9.647147817e-05 )
( 0.004646735732 5.477685409e-05 -9.82095662e-05 )
( 0.003673477331 3.890648077e-05 -8.334507584e-05 )
( 0.003642114345 4.01216821e-05 -8.169959619e-05 )
( 0.007196498569 0.0001016124879 -0.0001421203633 )
( 0.00721509289 9.812349163e-05 -0.0001435733866 )
( 0.005706287455 6.608395779e-05 -0.0001193826174 )
( 0.005682302173 6.784529251e-05 -0.000117655778 )
( 0.005632602144 7.123572868e-05 -0.0001140755558 )
( 0.005657881033 6.948525697e-05 -0.0001158802042 )
( 0.00725252321 9.273387695e-05 -0.0001464475063 )
( 0.007232817821 9.624905942e-05 -0.0001451284334 )
( 0.004704711493 5.196678831e-05 -0.0001016277965 )
( 0.004676234908 5.334897651e-05 -9.995971777e-05 )
( 0.00357679883 4.242155046e-05 -7.824318891e-05 )
( 0.003609865904 4.125171836e-05 -8.008276927e-05 )
( 0.002683137776 2.717089774e-05 -6.426147593e-05 )
( 0.002652046503 2.782282172e-05 -6.263938849e-05 )
( 0.00172231195 1.945095391e-05 -4.058834747e-05 )
( 0.001753071439 1.868602885e-05 -4.248366531e-05 )
( 0.008698567748 3.356311572e-05 -0.0002695430303 )
( 0.009129289538 2.222648982e-05 -0.00027397144 )
( 0.008703315631 3.842295337e-05 -0.0002651226532 )
( 0.009128951468 2.198567745e-05 -0.0002741978387 )
( 0.008705651388 4.498364797e-05 -0.0002550214704 )
( 0.008703480475 4.057235128e-05 -0.0002596186241 )
( 0.009118745103 1.163440538e-05 -0.0002806164266 )
( 0.009118372574 1.139414417e-05 -0.000280785549 )
( 0.008708644658 5.616388808e-05 -0.0002352071169 )
( 0.00870858971 5.134921958e-05 -0.0002389416914 )
( 0.008712333627 4.494455789e-05 -0.0002487667662 )
( 0.008708911948 4.919433559e-05 -0.000244075447 )
( 0.009585564025 -4.055820682e-05 -0.0002770455321 )
( 0.009090818465 -5.785756002e-06 -0.0002896914084 )
( 0.009091299959 -5.49190554e-06 -0.0002895909129 )
( 0.009105603211 5.798870006e-06 -0.0002860273526 )
( 0.009105129167 5.524447261e-06 -0.000286176888 )
( 0.009568098001 -4.737274503e-05 -0.0002800328948 )
( 0.01070157625 -0.0004493788001 2.296506136e-05 )
( 0.01051040646 -0.0003493569675 -5.437887739e-05 )
( 0.01058344264 -0.0003263838007 -5.429501471e-05 )
( 0.01015432831 -0.0001861799392 -0.0001978771179 )
( 0.01009421609 -0.0002032492048 -0.0002001280955 )
( 0.009776903316 -0.000118584343 -0.000260315428 )
( 0.009780831635 -0.0001172858247 -0.0002601288725 )
( 0.009831940755 -0.0001014844092 -0.0002580506261 )
( 0.009828220122 -0.0001028950865 -0.0002582078159 )
( 0.009524131194 -6.372502685e-05 -0.0002853911137 )
( 0.009542702697 -5.789927673e-05 -0.0002835651394 )
( 0.008160960861 5.283694918e-05 -0.0002240429749 )
( 0.008158576675 5.403502291e-05 -0.000220687929 )
( 0.00815025717 5.978230547e-05 -0.0002123338345 )
( 0.008154103532 5.846361455e-05 -0.0002155248803 )
( 0.008129544556 7.048316183e-05 -0.0001981911628 )
( 0.008135641925 6.87961583e-05 -0.0002013289923 )
( 0.008145995438 6.306810974e-05 -0.0002081492567 )
( 0.008141354658 6.429485802e-05 -0.0002051600604 )
( 0.007692787331 6.320157263e-05 -0.0001866414241 )
( 0.007684777491 6.815251982e-05 -0.0001837693271 )
( 0.007664956152 7.423904026e-05 -0.0001778443111 )
( 0.007674542256 6.894213584e-05 -0.0001807643712 )
( 0.007619037759 8.592320955e-05 -0.0001654685766 )
( 0.007630589884 8.068065654e-05 -0.0001684954041 )
( 0.007653586566 7.453368016e-05 -0.0001748192008 )
( 0.007643145043 7.979257498e-05 -0.0001717235864 )
( 0.007315102033 8.216193964e-05 -0.000156145863 )
( 0.007300616242 8.537706162e-05 -0.0001531879243 )
( 0.007269048132 9.107356163e-05 -0.0001483719388 )
( 0.007285275962 8.748548134e-05 -0.0001504999091 )
( 0.001839736942 1.693245031e-05 -4.706392065e-05 )
( 0.001866866834 1.651239472e-05 -4.837714368e-05 )
( 0.001202600892 9.062744539e-06 -3.342343916e-05 )
( 0.001180760097 9.35420303e-06 -3.218351048e-05 )
( 0.003703950671 3.778020618e-05 -8.511634951e-05 )
( 0.003733600955 3.666404882e-05 -8.673359844e-05 )
( 0.002800118644 2.436890281e-05 -7.013721188e-05 )
( 0.002771867905 2.514125663e-05 -6.877443229e-05 )
( 0.005729618482 6.47259003e-05 -0.000120633762 )
( 0.005752829835 6.282803952e-05 -0.0001218331381 )
( 0.004809379112 4.764044934e-05 -0.0001081571754 )
( 0.004784083925 4.879802873e-05 -0.0001066724071 )
( 0.004732009489 5.099400732e-05 -0.0001032902437 )
( 0.004758400843 5.003754268e-05 -0.0001050975407 )
( 0.005797510967 5.941613199e-05 -0.0001246232277 )
( 0.005775072612 6.144343934e-05 -0.0001235415548 )
( 0.003790099174 3.49573711e-05 -8.981138672e-05 )
( 0.003762335051 3.576093513e-05 -8.827409329e-05 )
( 0.002713440685 2.654233685e-05 -6.593781291e-05 )
( 0.002742978279 2.584942376e-05 -6.74362891e-05 )
( 0.001918860478 1.580680691e-05 -5.099342161e-05 )
( 0.001893175184 1.615704969e-05 -4.976274067e-05 )
( 0.001134742866 1.009788411e-05 -2.948664587e-05 )
( 0.001158032683 9.705232515e-06 -3.10252799e-05 )
( 0.008165244013 3.623592056e-05 -0.0002631719108 )
( 0.008695526049 3.302764526e-05 -0.0002744518861 )
( 0.008168011904 3.743425259e-05 -0.0002584067406 )
( 0.008692014962 2.805971599e-05 -0.0002781889634 )
( 0.00816998817 4.227884347e-05 -0.0002474027278 )
( 0.00816838257 4.101035302e-05 -0.0002523883595 )
( 0.008688239381 2.540416244e-05 -0.0002823339892 )
( 0.008684018627 2.004601447e-05 -0.0002855409402 )
( 0.008160977624 4.992248432e-05 -0.0002285345108 )
( 0.008164232597 4.895891107e-05 -0.0002319628547 )
( 0.008172137663 4.478628762e-05 -0.0002416158532 )
( 0.00816824846 4.541240196e-05 -0.0002370926377 )
( 0.009074869566 -1.188857914e-05 -0.0002928136673 )
( 0.009074299596 -1.216374403e-05 -0.000292892888 )
( 0.008663297631 5.047718787e-06 -0.0002946805034 )
( 0.008668770082 1.033161334e-05 -0.0002935406228 )
( 0.008679158986 1.90549199e-05 -0.0002889831376 )
( 0.008674575947 1.350884031e-05 -0.0002912770142 )
( 0.009057261981 -2.319573832e-05 -0.0002958918922 )
( 0.009057825431 -2.294482147e-05 -0.0002957782708 )
( 0.01035505626 -0.000400509336 -4.997688666e-05 )
( 0.01043507643 -0.0003757389204 -5.285800944e-05 )
( 0.009967290796 -0.0002387560962 -0.0001973197795 )
( 0.01003247686 -0.0002206865465 -0.000200113398 )
( 0.009721967392 -0.0001328534709 -0.0002637200523 )
( 0.009726077318 -0.0001315537374 -0.0002634217381 )
( 0.009669738822 -0.0001469974377 -0.0002670194372 )
( 0.009665380232 -0.0001482467487 -0.0002671721741 )
( 0.009427511133 -9.348992899e-05 -0.0002899276733 )
( 0.009448385797 -8.887205331e-05 -0.0002889463794 )
( 0.009497249499 -7.471932622e-05 -0.0002870362368 )
( 0.009477304295 -7.992556493e-05 -0.0002881130204 )
( 0.009019847959 -3.809640111e-05 -0.0003002326121 )
( 0.009020443074 -3.786356683e-05 -0.0003002040903 )
( 0.009039062075 -2.794766806e-05 -0.0002988175838 )
( 0.00903845299 -2.818361463e-05 -0.0002989006462 )
( 0.007736757863 4.522799281e-05 -0.0002131987421 )
( 0.007734903134 4.944003376e-05 -0.0002098421537 )
( 0.007727163844 5.424901246e-05 -0.0002026061411 )
( 0.007729167584 4.969660949e-05 -0.0002059254766 )
( 0.007701865863 6.314856e-05 -0.0001897545299 )
( 0.007709094789 5.845688429e-05 -0.0001928339479 )
( 0.007723062765 5.374873581e-05 -0.0001994812483 )
( 0.007717106026 5.809678987e-05 -0.0001962208044 )
( 0.007411984261 6.146949454e-05 -0.0001808185771 )
( 0.00740233995 6.433833914e-05 -0.000177997048 )
( 0.007380234078 6.970945105e-05 -0.0001718795975 )
( 0.007391571533 6.647751434e-05 -0.0001749601943 )
( 0.007329354063 8.028819138e-05 -0.0001591391047 )
( 0.007342885714 7.697560068e-05 -0.00016223274 )
( 0.007368218154 7.157331856e-05 -0.0001687435142 )
( 0.007356056012 7.472360448e-05 -0.0001655753731 )
( 0.00587866595 5.340411371e-05 -0.0001321469026 )
( 0.005859516561 5.480350228e-05 -0.000129695065 )
( 0.005818617996 5.812934978e-05 -0.0001262185106 )
( 0.00583975995 5.623797915e-05 -0.0001278363197 )
( 0.001223789528 8.840317605e-06 -3.446994015e-05 )
( 0.001244368614 8.638261534e-06 -3.551106056e-05 )
( 0.0007294276729 4.016607818e-06 -2.210811726e-05 )
( 0.0007144730189 4.138250461e-06 -2.135645445e-05 )
( 0.002827498596 2.367978959e-05 -7.16887007e-05 )
( 0.002854241524 2.30171845e-05 -7.306857879e-05 )
( 0.002015707549 1.418689772e-05 -5.543111547e-05 )
( 0.00199226453 1.463374792e-05 -5.446341675e-05 )
( 0.004834251944 4.64368386e-05 -0.0001096445849 )
( 0.004858478438 4.526933481e-05 -0.0001108139113 )
( 0.003893545829 3.220306098e-05 -9.564240463e-05 )
( 0.003868480446 3.309695603e-05 -9.424398013e-05 )
( 0.003816982964 3.441919398e-05 -9.129726823e-05 )
( 0.003842961742 3.379552436e-05 -9.284667613e-05 )
( 0.004905526061 4.297435589e-05 -0.0001136272331 )
( 0.004882240668 4.416687079e-05 -0.0001122347967 )
( 0.002905438887 2.209830382e-05 -7.570283924e-05 )
( 0.002880200977 2.251445403e-05 -7.444688526e-05 )
( 0.001943876036 1.546378007e-05 -5.221523679e-05 )
( 0.001968303462 1.505664022e-05 -5.342661825e-05 )
( 0.001283834106 8.303092727e-06 -3.750898031e-05 )
( 0.001264373772 8.471405636e-06 -3.657803973e-05 )
( 0.0006830154452 4.463535788e-06 -1.958476241e-05 )
( 0.0006990349502 4.283600902e-06 -2.04468306e-05 )
( 0.007748905569 3.267865395e-05 -0.0002509276965 )
( 0.008163577877 3.286624269e-05 -0.0002684446517 )
( 0.007751301862 3.648806887e-05 -0.0002458341769 )
( 0.008163435385 3.133275823e-05 -0.0002721505007 )
( 0.007747663185 3.983506394e-05 -0.0002350826981 )
( 0.007749616168 3.609708801e-05 -0.0002401226957 )
( 0.008160606958 2.6394011e-05 -0.0002769204439 )
( 0.008159414865 2.466356273e-05 -0.0002802970121 )
( 0.007742010057 4.595184146e-05 -0.0002171885717 )
( 0.00774333952 4.185617581e-05 -0.0002211634419 )
( 0.007749434561 3.89333145e-05 -0.0002298115869 )
( 0.007744372822 4.223618453e-05 -0.0002254135325 )
( 0.008656760678 3.787826245e-06 -0.000295870821 )
( 0.008650784381 -1.753498054e-06 -0.0002969502239 )
( 0.008147803135 1.192028594e-05 -0.0002895555808 )
( 0.008150328882 1.369332585e-05 -0.0002882826375 )
( 0.008156132884 2.072237476e-05 -0.0002837655484 )
( 0.008154740557 1.863866419e-05 -0.0002863213886 )
( 0.00863655936 -1.036321282e-05 -0.0002993831877 )
( 0.008643419482 -4.936894129e-06 -0.0002983704908 )
( 0.00982637424 -0.0002779997303 -0.0001879247429 )
( 0.009899281897 -0.00025901763 -0.0001927171543 )
( 0.009544501081 -0.0001798586163 -0.0002646404901 )
( 0.009549089707 -0.0001783776243 -0.0002649957605 )
( 0.009610541165 -0.0001622016425 -0.0002677595767 )
( 0.009606198408 -0.0001637582172 -0.0002675820142 )
( 0.009375812486 -0.000107212094 -0.0002942225838 )
( 0.009397601709 -0.0001023909499 -0.0002921414271 )
( 0.009344194084 -0.0001161175678 -0.0002970852074 )
( 0.009321452118 -0.0001209551046 -0.0002988987835 )
( 0.008932445198 -6.342484994e-05 -0.0003037185525 )
( 0.008933160454 -6.325428694e-05 -0.0003036729468 )
( 0.008955596015 -5.461750334e-05 -0.0003030095831 )
( 0.008954871446 -5.481731205e-05 -0.000303022709 )
( 0.008999223821 -4.216394154e-05 -0.0003018393472 )
( 0.008998536505 -4.237466783e-05 -0.0003018812567 )
( 0.008978225291 -5.163631795e-05 -0.0003023560275 )
( 0.0089789005 -5.143997259e-05 -0.0003023348399 )
( 0.008604331873 -2.313432378e-05 -0.0003016847477 )
( 0.008612725884 -1.836062074e-05 -0.0003014598333 )
( 0.008628491312 -1.08762415e-05 -0.000300745538 )
( 0.008621198125 -1.587075712e-05 -0.0003012737725 )
( 0.007469174918 4.565313793e-05 -0.0002077535901 )
( 0.007463497575 4.796848225e-05 -0.0002040230902 )
( 0.007453295402 5.205698471e-05 -0.0001971195015 )
( 0.007457379252 4.955419718e-05 -0.0002003007248 )
( 0.007421437651 6.001184374e-05 -0.0001837631862 )
( 0.007430313621 5.72908466e-05 -0.0001870077249 )
( 0.007446066011 5.322710422e-05 -0.0001936159679 )
( 0.007438621018 5.566736581e-05 -0.000190201652 )
( 0.006011459976 4.195531073e-05 -0.000150851658 )
( 0.00599704776 4.314870603e-05 -0.0001485794492 )
( 0.005966481753 4.585026545e-05 -0.0001442111097 )
( 0.005982065573 4.434988296e-05 -0.0001463519584 )
( 0.005897601601 5.199521547e-05 -0.0001344394404 )