/*--------------------------------*- C++ -*----------------------------------*\
  =========                 |
  \\      /  F ield         | OpenFOAM: The Open Source CFD Toolbox
   \\    /   O peration     | Website:  https://openfoam.org
    \\  /    A nd           | Version:  8
     \\/     M anipulation  |
\*---------------------------------------------------------------------------*/






FoamFile
{
    version     2.0;
    format      ascii;
    class       volVectorField;
    location    "0";
    object      UDDES;
}
// * * * * * * * * * * * * * * * * * * * * * * * * * * * * * * * * * * * * * //

dimensions      [0 1 -1 0 0 0 0];


internalField   nonuniform List<vector> 
20961
(
( 0.01319313888 0.0008661670145 8.445536514e-05 )
( 0.01264989469 0.000821874768 0.0001351365499 )
( 0.01315345988 0.001087605022 8.730497939e-05 )
( 0.01207750384 0.0007562773535 0.0001293744426 )
( 0.01258380152 0.00103176618 0.0001388193341 )
( 0.01310643554 0.001340461313 9.059451259e-05 )
( 0.01197406091 0.0009464400355 0.0001257256663 )
( 0.01172564365 0.0007014722796 0.0001124822738 )
( 0.01166567579 0.0007858597673 0.0001101409725 )
( 0.0125021264 0.001270410139 0.0001372593833 )
( 0.01305175573 0.00162785803 9.477930143e-05 )
( 0.01184532791 0.001164789079 0.0001205851295 )
( 0.01159715373 0.0008764809463 0.00010783998 )
( 0.01152147539 0.0009743762203 0.0001049164639 )
( 0.01096692309 0.000598056009 6.12532167e-05 )
( 0.0108779911 0.0006687521236 6.344939175e-05 )
( 0.01240901928 0.001544318395 0.0001336627174 )
( 0.01299590804 0.001957141794 9.971614054e-05 )
( 0.01143750641 0.001080029528 0.00010276986 )
( 0.01134603471 0.001195324701 0.0001002507124 )
( 0.0116934143 0.001420389162 0.0001151578399 )
( 0.0107807396 0.0007452435675 6.483788457e-05 )
( 0.01067422051 0.0008286137599 6.442381709e-05 )
( 0.01037599798 0.0005225088098 2.426134961e-05 )
( 0.01036829501 0.0005270375987 2.469618812e-05 )
( 0.01025968511 0.0005881831748 3.112305785e-05 )
( 0.01026829984 0.000583310728 3.075239511e-05 )
( 0.01230974961 0.001867046347 0.0001303812605 )
( 0.01295170654 0.002340520499 0.0001068587881 )
( 0.01055696793 0.0009188374388 6.367660535e-05 )
( 0.01042761933 0.001016572351 6.402914005e-05 )
( 0.01084370539 0.001235693926 8.383372915e-05 )
( 0.01110339072 0.00161746284 9.755523206e-05 )
( 0.01071612537 0.001362092677 8.18145636e-05 )
( 0.01191391237 0.001784424763 0.0001249075576 )
( 0.01014997624 0.0006499249139 3.502775508e-05 )
( 0.01014044508 0.0006551688421 3.5287012e-05 )
( 0.01001000125 0.0007280231221 3.762939377e-05 )
( 0.01002076548 0.0007223414141 3.754159115e-05 )
( 0.009924307466 0.0004551401071 6.285504242e-07 )
( 0.009876234457 0.000474370172 4.721547612e-06 )
( 0.009749995545 0.0005297362222 1.341671668e-05 )
( 0.009804198518 0.00050807558 9.844812666e-06 )
( 0.01184488554 0.001962591428 0.0001250349014 )
( 0.01221528277 0.002248192206 0.0001322919998 )
( 0.01293287799 0.002790623112 0.0001186071167 )
( 0.009878170677 0.0008011821192 3.889921936e-05 )
( 0.009866002947 0.0008071430493 3.890683729e-05 )
( 0.01028467529 0.001123644994 6.334946374e-05 )
( 0.009705571458 0.0008932605851 3.973266939e-05 )
( 0.009719897993 0.0008869920275 3.9735678e-05 )
( 0.0105815623 0.001500499318 8.0495156e-05 )
( 0.01098962035 0.001781424391 9.800655971e-05 )
( 0.01012854278 0.001240521553 6.265680713e-05 )
( 0.00967152603 0.0005665334756 1.658983274e-05 )
( 0.009612436406 0.0005903184647 1.89665152e-05 )
( 0.009460398927 0.0006566817174 2.338294325e-05 )
( 0.009525005706 0.0006306326832 2.167715502e-05 )
( 0.00922819227 0.0003795900266 -1.50545784e-05 )
( 0.009226042777 0.0003802345018 -1.489993247e-05 )
( 0.009157817811 0.000404409715 -9.97265397e-06 )
( 0.009160061367 0.0004037442268 -1.013420842e-05 )
( 0.009009397589 0.0004509311111 6.397797279e-07 )
( 0.009011986665 0.0004501942894 4.964615528e-07 )
( 0.009088785388 0.0004236898385 -4.625761449e-06 )
( 0.0090862941 0.0004243921139 -4.458997864e-06 )
( 0.01177691109 0.002154824324 0.0001264944294 )
( 0.0113048153 0.002281146357 0.0001161344771 )
( 0.01213582605 0.002692359034 0.0001369304082 )
( 0.01296497416 0.003323610639 0.0001267517364 )
( 0.009365087375 0.0007001652266 2.43599261e-05 )
( 0.009293784387 0.0007289000787 2.555974243e-05 )
( 0.009543285705 0.00098015822 4.077565973e-05 )
( 0.009526006877 0.0009867170593 4.067430564e-05 )
( 0.009108317085 0.0008068962488 2.821558155e-05 )
( 0.009188232012 0.0007756446139 2.702441634e-05 )
( 0.009960436262 0.001366840675 6.066255446e-05 )
( 0.0104379924 0.00165369513 7.98438632e-05 )
( 0.01087688562 0.001960964641 9.82695492e-05 )
( 0.009325951338 0.001089522266 4.066795736e-05 )
( 0.009346712381 0.00108297402 4.07516527e-05 )
( 0.00893201679 0.0004728821805 4.90950697e-06 )
( 0.008929189295 0.000473641092 5.020919616e-06 )
( 0.008844940923 0.0005029292661 8.488667845e-06 )
( 0.008847943507 0.0005021304823 8.394044016e-06 )
( 0.008664237335 0.0005592648522 1.494053413e-05 )
( 0.008667680435 0.0005584596074 1.485960911e-05 )
( 0.008759845048 0.0005271857372 1.201253326e-05 )
( 0.008756537922 0.0005279999459 1.210340997e-05 )
( 0.008657893166 0.000325789355 -2.020907777e-05 )
( 0.008625632152 0.0003364810254 -1.771465577e-05 )
( 0.008545827121 0.0003554162977 -1.256388168e-05 )
( 0.008580492809 0.0003439728171 -1.493119089e-05 )
( 0.008377159014 0.000396224641 -1.122513368e-06 )
( 0.00841658935 0.0003836383694 -3.607386589e-06 )
( 0.008501777425 0.0003626056132 -9.430873433e-06 )
( 0.008464092389 0.0003747573355 -6.706988188e-06 )
( 0.01076451223 0.002158298157 9.645328828e-05 )
( 0.01122557372 0.002502695657 0.0001142883339 )
( 0.0111531103 0.00274306559 0.0001088678546 )
( 0.01210653037 0.00321025867 0.0001321571908 )
( 0.01299773622 0.003635543864 0.0001294419344 )
( 0.008574317209 0.0005849330337 1.743863868e-05 )
( 0.00857048668 0.0005857506767 1.751799937e-05 )
( 0.008469227701 0.0006193540758 2.05859069e-05 )
( 0.00847324729 0.0006185218808 2.051046249e-05 )
( 0.008989433758 0.0008577232365 2.876794679e-05 )
( 0.00889745634 0.0008915051585 2.941751882e-05 )
( 0.008247619495 0.0006856580731 2.456651237e-05 )
( 0.008252321742 0.0006848232588 2.450025568e-05 )
( 0.008366894908 0.0006482127355 2.251631486e-05 )
( 0.008362472057 0.000649036665 2.259026951e-05 )
( 0.00904318504 0.001189193688 3.854620445e-05 )
( 0.009004271589 0.001192737254 3.798028774e-05 )
( 0.009119401686 0.001326066442 4.222420102e-05 )
( 0.009965813719 0.001388051664 6.121329352e-05 )
( 0.01029717084 0.001823985833 7.910252316e-05 )
( 0.009691940621 0.001493925694 5.735805826e-05 )
( 0.008660295978 0.0009825382149 2.991285146e-05 )
( 0.008765709586 0.0009467387572 2.983092418e-05 )
( 0.008327613585 0.0004048114351 1.565350885e-06 )
( 0.008289290592 0.0004186005099 3.881050361e-06 )
( 0.008191145025 0.0004421390477 7.684049706e-06 )
( 0.00823456049 0.0004283540766 5.710430742e-06 )
( 0.008004213683 0.0004923483357 1.462659748e-05 )
( 0.008034178987 0.0004766553466 1.393751245e-05 )
( 0.008136171848 0.0004517669149 9.922987374e-06 )
( 0.008090354502 0.0004659643455 1.204617092e-05 )
( 0.007946001366 0.0002713387075 -1.868977597e-05 )
( 0.007910257205 0.0002760875504 -1.609746141e-05 )
( 0.007819491439 0.0002914708748 -1.045731369e-05 )
( 0.007857457735 0.0002863343398 -1.29190912e-05 )
( 0.00762884412 0.0003249959846 1.341038796e-06 )
( 0.007670759223 0.0003191272262 -8.768798807e-07 )
( 0.007765771355 0.0003017850395 -7.079722764e-06 )
( 0.007725300267 0.0003072913096 -4.262862603e-06 )
( 0.01065703109 0.002371154726 9.193832375e-05 )
( 0.01015266124 0.002011869336 7.543787069e-05 )
( 0.01055280119 0.002601266606 8.397458441e-05 )
( 0.01114764716 0.002780914539 0.0001079393478 )
( 0.01108435821 0.003036950715 9.933343244e-05 )
( 0.01209063735 0.003520372324 0.0001213020805 )
( 0.0116277691 0.003442802001 0.0001122165995 )
( 0.01264461502 0.004142119549 0.0001024743979 )
( 0.01202028524 0.003777901409 0.0001063690506 )
( 0.007931939326 0.0005009498564 1.679331217e-05 )
( 0.007883314043 0.000515964115 1.868020081e-05 )
( 0.007769026328 0.0005437119398 2.191669955e-05 )
( 0.00782021787 0.0005278229946 2.07028279e-05 )
( 0.008130149916 0.0007167703006 2.564553506e-05 )
( 0.008124752901 0.0007175528444 2.567214869e-05 )
( 0.007988267578 0.0007551484741 2.556625623e-05 )
( 0.00799459219 0.0007544910186 2.557968037e-05 )
( 0.00751669798 0.0006013623788 2.554059392e-05 )
( 0.007575953845 0.0005844879779 2.510170088e-05 )
( 0.007702828385 0.0005553070805 2.318018414e-05 )
( 0.007646914106 0.0005718235625 2.396795571e-05 )
( 0.008519994095 0.001044234494 2.896107617e-05 )
( 0.008622276597 0.001214805292 3.240797741e-05 )
( 0.008413298987 0.001085832366 2.776388101e-05 )
( 0.009025196545 0.001387915225 4.20731958e-05 )
( 0.009518139996 0.001653400715 5.549380512e-05 )
( 0.009503114969 0.001666425494 5.522456195e-05 )
( 0.007730267942 0.000829315919 2.236831278e-05 )
( 0.007738397457 0.0008286811062 2.243527706e-05 )
( 0.007840689272 0.000786647026 2.41281723e-05 )
( 0.007832381874 0.0007870631525 2.407140346e-05 )
( 0.007574973628 0.0003374087973 4.955554687e-06 )
( 0.007531842217 0.0003440033179 6.990762813e-06 )
( 0.007419844158 0.0003632165899 1.140399672e-05 )
( 0.007473079953 0.0003573185531 9.825800589e-06 )
( 0.007214683574 0.0004070794675 1.823179628e-05 )
( 0.007259813137 0.0003991621488 1.710511788e-05 )
( 0.00735627627 0.0003764184949 1.37613888e-05 )
( 0.007307216525 0.0003833436349 1.571837129e-05 )
( 0.007399542257 0.0002285051451 -1.397674987e-05 )
( 0.007357535884 0.0002371268347 -1.088424688e-05 )
( 0.007265896536 0.0002510334598 -4.66995516e-06 )
( 0.007309858687 0.0002413737384 -7.757642379e-06 )
( 0.007060194388 0.00028012658 7.804059351e-06 )
( 0.007110793144 0.000269607408 4.968961093e-06 )
( 0.007214586716 0.0002550811332 -1.380218919e-06 )
( 0.007164039183 0.0002646640933 1.806912906e-06 )
( 0.01001008786 0.002216090448 6.849465717e-05 )
( 0.009370421059 0.001831946429 5.089485057e-05 )
( 0.009388066828 0.00181892293 5.148668424e-05 )
( 0.01045213919 0.002845477778 7.42418415e-05 )
( 0.009772272781 0.002440741751 5.383812095e-05 )
( 0.01002677996 0.002249035286 6.864182069e-05 )
( 0.01102659479 0.003303818172 8.970661293e-05 )
( 0.01035039127 0.003093160689 6.304035196e-05 )
( 0.0115541555 0.003699828871 9.976566071e-05 )
( 0.01243833732 0.004476389382 9.433001833e-05 )
( 0.01213070285 0.004028680269 9.567551751e-05 )
( 0.01173999254 0.004242530558 8.869736484e-05 )
( 0.007143814117 0.0004202709533 2.009698255e-05 )
( 0.007074960973 0.0004267572949 2.192621832e-05 )
( 0.006949036382 0.000449533778 2.444728671e-05 )
( 0.007006057538 0.0004411209375 2.353677701e-05 )
( 0.007442472968 0.0006132865674 2.597577623e-05 )
( 0.007375322282 0.0006303538103 2.557069092e-05 )
( 0.00720165344 0.0006563588395 2.433017289e-05 )
( 0.007286710665 0.0006429514033 2.499611219e-05 )
( 0.006740351673 0.0005031266483 2.710067929e-05 )
( 0.006761396769 0.0004901649663 2.653269075e-05 )
( 0.006886033807 0.0004652900388 2.533750194e-05 )
( 0.006834642496 0.0004740948498 2.603564644e-05 )
( 0.007600837853 0.0008728544926 1.999649612e-05 )
( 0.00759345293 0.0008737615426 1.988150689e-05 )
( 0.008365225978 0.001242951374 2.874078382e-05 )
( 0.008055148646 0.001100070425 2.304396548e-05 )
( 0.008046183735 0.00110107311 2.294911064e-05 )
( 0.007344853599 0.000912054209 1.488473208e-05 )
( 0.007498269435 0.0009817993268 1.650995728e-05 )
( 0.007363006007 0.0009129778482 1.51511631e-05 )
( 0.008895806037 0.001478543156 3.999181354e-05 )
( 0.008827472106 0.001554980292 3.837129771e-05 )
( 0.007022800855 0.0007340023876 1.748071372e-05 )
( 0.007090122439 0.0007161576068 1.887673716e-05 )
( 0.007095701993 0.0006687236601 2.233259875e-05 )
( 0.00703894347 0.0006821457646 2.089791815e-05 )
( 0.007004753686 0.0002852020843 1.081002665e-05 )
( 0.006957747042 0.0002966486791 1.36030194e-05 )
( 0.006838517729 0.0003135260195 1.795424396e-05 )
( 0.006896602921 0.0003022124292 1.598720701e-05 )
( 0.00661666505 0.0003524679341 2.39316887e-05 )
( 0.006659778766 0.0003383450094 2.30352889e-05 )
( 0.006774101406 0.0003190296702 1.979374065e-05 )
( 0.006719008088 0.0003312111949 2.142023368e-05 )
( 0.007037519943 0.0002077147947 -1.193285243e-05 )
( 0.006991757546 0.0002138551499 -8.890158824e-06 )
( 0.006898655556 0.0002262956841 -2.693194119e-06 )
( 0.006944227498 0.0002192424145 -5.844233328e-06 )
( 0.006686204579 0.0002526245662 9.409161976e-06 )
( 0.006740540266 0.00024498516 6.527616279e-06 )
( 0.006845285185 0.0002315937454 4.415038006e-07 )
( 0.006794103887 0.0002387269196 3.623300472e-06 )
( 0.009100696072 0.002011199249 3.916991773e-05 )
( 0.009066820145 0.002020542277 3.775148798e-05 )
( 0.009190846235 0.002235441236 3.610749627e-05 )
( 0.008769311011 0.001728632022 3.421122165e-05 )
( 0.00886270497 0.001671077218 3.738857777e-05 )
( 0.009769362397 0.002459055977 5.31989208e-05 )
( 0.00966334343 0.002657310572 4.344469562e-05 )
( 0.00921508763 0.0023816959 3.240951264e-05 )
( 0.0109722456 0.003560363781 8.083306602e-05 )
( 0.01037237421 0.003130527912 6.322244008e-05 )
( 0.01020043064 0.003345807316 5.059207251e-05 )
( 0.009536443278 0.002940517152 3.114788342e-05 )
( 0.009468214586 0.002904153662 2.934866643e-05 )
( 0.009654391557 0.002673781011 4.254314263e-05 )
( 0.01160626672 0.003941242117 9.369806503e-05 )
( 0.01171341166 0.00445566792 8.240690659e-05 )
( 0.01232913788 0.004823328927 8.678840095e-05 )
( 0.01093262807 0.004081676714 6.558835594e-05 )
( 0.006537272595 0.0003575380833 2.579051761e-05 )
( 0.006474566646 0.000370293943 2.68606891e-05 )
( 0.006351055577 0.0003910018422 2.8231123e-05 )
( 0.006406325847 0.0003772772616 2.77467534e-05 )
( 0.00671610143 0.0005238041631 2.564614988e-05 )
( 0.006650494877 0.000534592371 2.48444976e-05 )
( 0.006455681287 0.0005547711044 2.254783431e-05 )
( 0.006545188371 0.0005471640034 2.393755858e-05 )
( 0.006118325051 0.0004395681026 2.840222623e-05 )
( 0.006239203736 0.0004293044913 2.943510481e-05 )
( 0.006300606765 0.0004001468769 2.893209603e-05 )
( 0.006259151734 0.0004156150389 2.893566125e-05 )
( 0.006946855225 0.000763633172 1.518536737e-05 )
( 0.006901123561 0.0007791510434 1.30967619e-05 )
( 0.008187837899 0.001306627179 2.629372284e-05 )
( 0.007897651754 0.001158944797 2.085166125e-05 )
( 0.007905989885 0.00115775771 2.098013283e-05 )
( 0.007412783336 0.00100475247 1.46064458e-05 )
( 0.006958968937 0.0008900117828 8.565722965e-06 )
( 0.006760562304 0.0008229958476 7.895971976e-06 )
( 0.00682913512 0.0008076443337 1.02211925e-05 )
( 0.008152731694 0.001402246999 2.433918053e-05 )
( 0.005374976434 0.0005173531245 8.510593943e-06 )
( 0.005621295888 0.0005290594418 1.27876001e-05 )
( 0.00629494153 0.0005588019267 2.094241427e-05 )
( 0.006283770781 0.0005810327712 1.862536556e-05 )
( 0.006629554089 0.0002591894299 1.23210848e-05 )
( 0.006572505459 0.0002671056718 1.468067785e-05 )
( 0.006452457048 0.0002825313131 1.870372762e-05 )
( 0.00651573576 0.0002743441146 1.681741924e-05 )
( 0.006200987846 0.000316512771 2.46137497e-05 )
( 0.006266282871 0.0003070873499 2.310359559e-05 )
( 0.006390199065 0.0002898283419 2.023234083e-05 )
( 0.006327455398 0.0002988156048 2.192901593e-05 )
( 0.005323706195 0.0001237224205 1.132742909e-06 )
( 0.00527291419 0.0001269915665 3.726107934e-06 )
( 0.005167431664 0.0001338718284 9.195066923e-06 )
( 0.005221035331 0.0001303491299 6.449094144e-06 )
( 0.004938432947 0.0001493495511 1.869738662e-05 )
( 0.004998140037 0.0001451660792 1.6617234e-05 )
( 0.00511250319 0.0001374872081 1.175779016e-05 )
( 0.005056148395 0.000141291137 1.446286569e-05 )
( 0.008624986745 0.001835987903 2.782638148e-05 )
( 0.008763262071 0.002117624041 2.472325468e-05 )
( 0.008502842858 0.001904130913 2.267909076e-05 )
( 0.007968823425 0.001562278718 1.717780106e-05 )
( 0.007977208123 0.001560905715 1.740862899e-05 )
( 0.008152460679 0.001487355679 2.293014404e-05 )
( 0.009163200855 0.00248629367 2.686784137e-05 )
( 0.009080360644 0.002560614841 2.300581218e-05 )
( 0.008631671779 0.002243813826 1.644891927e-05 )
( 0.01094948314 0.003806424094 7.410256512e-05 )
( 0.01012492459 0.003651519772 4.226617966e-05 )
( 0.01005642116 0.003614999354 4.018295658e-05 )
( 0.01019342244 0.003364498029 4.995805284e-05 )
( 0.009698898531 0.003164565191 3.172488505e-05 )
( 0.009251726791 0.00302948663 1.901706491e-05 )
( 0.008803698234 0.00276695611 1.089280158e-05 )
( 0.00893442519 0.002684421837 1.553189759e-05 )
( 0.01082870178 0.004033693112 6.2549625e-05 )
( 0.01150940731 0.004770184401 6.706426211e-05 )
( 0.01144027337 0.004764244426 6.496243441e-05 )
( 0.01161821559 0.00443699304 8.040043758e-05 )
( 0.01103818789 0.004589329008 5.691753177e-05 )
( 0.01161205024 0.005024164449 6.152750575e-05 )
( 0.0107842423 0.004355321173 5.434101331e-05 )
( 0.01025054045 0.004164494574 3.879014184e-05 )
( 0.01034028921 0.004009873606 4.38473071e-05 )
( 0.005335238297 0.0002638398728 2.611182754e-05 )
( 0.005264802836 0.0002717085299 2.669007335e-05 )
( 0.005119141191 0.000286739436 2.642760774e-05 )
( 0.005192817189 0.0002791092556 2.665519787e-05 )
( 0.006332457066 0.0004770029336 2.658714948e-05 )
( 0.006315879989 0.0004967321292 2.448703526e-05 )
( 0.006115839817 0.0005146382609 2.161871089e-05 )
( 0.006223990116 0.0005060291151 2.31235681e-05 )
( 0.004630306736 0.0002988894994 2.328536721e-05 )
( 0.00488223508 0.0003080441966 2.447020779e-05 )
( 0.005042556208 0.0002939713886 2.609127114e-05 )
( 0.004963987973 0.0003014139947 2.540696914e-05 )
( 0.006192502566 0.0006499417359 1.03368302e-05 )
( 0.006147515494 0.0006718914956 7.150034889e-06 )
( 0.007741347887 0.001210186165 1.753161087e-05 )
( 0.007733305916 0.001211169409 1.740253356e-05 )
( 0.007255791221 0.001062212046 1.085066197e-05 )
( 0.007323720492 0.001034321147 1.274973511e-05 )
( 0.006705690175 0.0008827596903 3.633472033e-06 )
( 0.006516894791 0.0008196358685 2.834806764e-06 )
( 0.006008606404 0.0007113486063 3.082921012e-07 )
( 0.006084199063 0.000689219858 3.728827323e-06 )
( 0.007518304978 0.001264091698 1.191028969e-05 )
( 0.007527191192 0.001262869453 1.212341795e-05 )
( 0.004308079369 0.0004078699858 2.819543852e-06 )
( 0.005605033133 0.000527591561 1.272490954e-05 )
( 0.00595985353 0.0005161560839 1.925964898e-05 )
( 0.005746095441 0.0005131897633 1.673529187e-05 )
( 0.004876860883 0.0001535104093 2.048613533e-05 )
( 0.004814135842 0.0001580472308 2.190030864e-05 )
( 0.004683667794 0.0001675880339 2.333132761e-05 )
( 0.004746211227 0.0001624427532 2.260593283e-05 )
( 0.004402289633 0.0001891612628 2.536110878e-05 )
( 0.004475615453 0.0001836371666 2.512336869e-05 )
( 0.004615927115 0.0001726660848 2.391754788e-05 )
( 0.004546635784 0.0001781791216 2.492213753e-05 )
( 0.004333296791 8.588395576e-05 4.843871011e-06 )
( 0.004282989539 8.813843306e-05 6.950806892e-06 )
( 0.004179098178 9.275001503e-05 1.15204748e-05 )
( 0.00423194468 9.029085049e-05 9.433128071e-06 )
( 0.003954678308 0.0001033825829 1.915545181e-05 )
( 0.004013438243 0.0001005060185 1.77727452e-05 )
( 0.004125422798 9.515871352e-05 1.385737778e-05 )
( 0.00407017488 9.78214448e-05 1.597259325e-05 )
( 0.007790103555 0.001637538895 1.107122534e-05 )
( 0.007780786604 0.001638958696 1.078706464e-05 )
( 0.008146242239 0.001947867335 1.217944191e-05 )
( 0.008137183264 0.001949565019 1.195822733e-05 )
( 0.007546400651 0.00170304894 3.331968173e-06 )
( 0.007644764148 0.001802964369 4.81061943e-06 )
( 0.007563474588 0.001703494345 3.693900453e-06 )
( 0.007278168574 0.001434092177 4.012811132e-06 )
( 0.007400641218 0.001406997209 6.557073903e-06 )
( 0.007345950231 0.001328914659 6.266488072e-06 )
( 0.007328820415 0.001328429906 5.873670489e-06 )
( 0.008587902412 0.002335615689 1.434658952e-05 )
( 0.008326858282 0.002392135095 8.214509762e-06 )
( 0.00859364029 0.002340961946 1.430411885e-05 )
( 0.008005703799 0.002068500966 7.179560725e-06 )
( 0.008015753701 0.002066750079 7.43106466e-06 )
( 0.009469274431 0.003520944854 2.130816029e-05 )
( 0.01032156218 0.003875823691 4.523689859e-05 )
( 0.008637337945 0.003334248904 4.545840056e-06 )
( 0.009633744135 0.003278904362 2.790673898e-05 )
( 0.009041160345 0.003136856714 1.284940299e-05 )
( 0.008802838624 0.002773109358 1.076478111e-05 )
( 0.008480394259 0.002854213351 3.637727332e-06 )
( 0.007932079956 0.002573775593 -1.64277435e-06 )
( 0.008005382493 0.002696537413 -1.34719653e-06 )
( 0.007947071455 0.002573574428 -1.464162551e-06 )
( 0.008152639493 0.002486523008 2.705203997e-06 )
( 0.008143441752 0.002488542348 2.509748811e-06 )
( 0.01121321414 0.004954647738 5.302640784e-05 )
( 0.01098494418 0.004721891135 5.211648386e-05 )
( 0.01058017369 0.004504865035 4.439674376e-05 )
( 0.01014432963 0.004262904637 3.505215136e-05 )
( 0.00933098793 0.004107012413 1.454410631e-05 )
( 0.009737523273 0.003902455559 2.56156236e-05 )
( 0.004329903983 0.0001949313737 2.547070835e-05 )
( 0.004257714376 0.0002009600867 2.538773515e-05 )
( 0.004107756075 0.000212776853 2.451092951e-05 )
( 0.004183816724 0.0002068607428 2.520785711e-05 )
( 0.00471551111 0.0003202311054 2.174646761e-05 )
( 0.004638820421 0.0003281440586 2.000933819e-05 )
( 0.004467143677 0.0003456853738 1.57925806e-05 )
( 0.004560693633 0.0003370328341 1.791028808e-05 )
( 0.003779123072 0.0002328744449 1.994643571e-05 )
( 0.003864656435 0.0002288521791 2.149606917e-05 )
( 0.004029628355 0.0002184021723 2.37669683e-05 )
( 0.003948320635 0.0002239738242 2.276708619e-05 )
( 0.004383192863 0.0004225550219 -1.047978458e-06 )
( 0.004381696228 0.0004432591377 -5.069467534e-06 )
( 0.007169067394 0.001082791016 8.835964763e-06 )
( 0.007073778659 0.00110488513 6.45167529e-06 )
( 0.006405601278 0.0009058015421 -2.207011221e-06 )
( 0.00644105114 0.0008854557527 -3.420560688e-07 )
( 0.005719284993 0.0007344912738 -7.425684544e-06 )
( 0.005875478964 0.0007186247967 -3.46831257e-06 )
( 0.004313752986 0.0004840638139 -1.287224222e-05 )
( 0.004356374498 0.0004646640737 -9.268540452e-06 )
( 0.006840150338 0.001156562706 -4.074695426e-08 )
( 0.006948050112 0.001132924459 2.918819746e-06 )
( 0.004100915045 0.0003907234059 5.114397936e-06 )
( 0.003364464734 0.0003103836498 -5.203321507e-07 )
( 0.00405525649 0.0003785974113 6.78023298e-06 )
( 0.004344751593 0.0003551947011 1.29574928e-05 )
( 0.004193868954 0.0003626732505 9.927939573e-06 )
( 0.003890805412 0.0001062281081 2.030492578e-05 )
( 0.003828646382 0.0001093651954 2.09445916e-05 )
( 0.003700270317 0.0001162784829 2.194593071e-05 )
( 0.003764247522 0.0001126979842 2.166507693e-05 )
( 0.003425259609 0.000132108602 2.300603774e-05 )
( 0.003497996135 0.0001281284203 2.316351674e-05 )
( 0.003637230955 0.0001201959676 2.255961044e-05 )
( 0.003568541724 0.0001241214632 2.288389624e-05 )
( 0.003374988213 5.623550896e-05 5.215146757e-06 )
( 0.003331434447 5.770069401e-05 7.091971838e-06 )
( 0.003235283773 6.058859071e-05 1.096130563e-05 )
( 0.003283894621 5.905663056e-05 9.075014532e-06 )
( 0.003023996949 6.75665724e-05 1.654556581e-05 )
( 0.003081683069 6.571469567e-05 1.546393469e-05 )
( 0.003185237991 6.221670628e-05 1.255083953e-05 )
( 0.003134399652 6.392259093e-05 1.429188615e-05 )
( 0.007157118525 0.001475205529 3.36988478e-07 )
( 0.007094201632 0.001510992879 -2.329472409e-06 )
( 0.007543640211 0.001839614008 3.133017344e-06 )
( 0.007176637184 0.001696468913 -3.675221933e-06 )
( 0.007036864758 0.001599792042 -5.811777555e-06 )
( 0.007118275389 0.001570326043 -4.782428732e-06 )
( 0.006654330064 0.001303514699 -8.389423783e-06 )
( 0.00692622317 0.001309303916 -2.984344974e-06 )
( 0.006890695542 0.001217841404 -2.079938668e-06 )
( 0.006809663028 0.001236872165 -3.902257504e-06 )
( 0.007787306327 0.002126898151 1.516230554e-06 )
( 0.007770748343 0.002126946114 1.228331143e-06 )
( 0.007820285857 0.002227952471 1.535250021e-06 )
( 0.007701901719 0.002264688956 1.021703611e-08 )
( 0.007387652062 0.001934304717 -2.338589411e-06 )
( 0.007435038686 0.001892661909 -1.342393716e-07 )
( 0.008969889022 0.003716715612 8.580837857e-06 )
( 0.009417995811 0.003510649782 1.985242307e-05 )
( 0.009134636261 0.003609769512 1.27167159e-05 )
( 0.008595762774 0.003330730135 3.872607522e-06 )
( 0.008232047781 0.003198127262 -2.29289958e-06 )
( 0.008776080795 0.003232376184 7.519292922e-06 )
( 0.009042678401 0.003144451184 1.283821166e-05 )
( 0.008783596568 0.00322953146 7.679352166e-06 )
( 0.008235488087 0.002935442841 -5.255020028e-07 )
( 0.008470799774 0.002856297186 3.480905889e-06 )
( 0.008252472617 0.002944051754 -2.225823437e-07 )
( 0.007947599515 0.002759492025 -3.955968623e-06 )
( 0.007640566211 0.002598902676 -4.323180292e-06 )
( 0.007458039094 0.002464754274 -7.681438547e-06 )
( 0.007532468997 0.00244090124 -7.678978363e-06 )
( 0.007587556727 0.002317863517 -2.703862265e-06 )
( 0.007588904351 0.002394852461 -6.081146694e-06 )
( 0.01114265993 0.005138711538 4.58870345e-05 )
( 0.01062713098 0.005011186935 3.762582855e-05 )
( 0.01010567043 0.00474806549 2.89394502e-05 )
( 0.009658913128 0.004483886994 2.085750748e-05 )
( 0.009326180443 0.004112129565 1.449752563e-05 )
( 0.009369917214 0.00423975382 1.495939432e-05 )
( 0.008955358528 0.003984463867 5.702094313e-06 )
( 0.009288647212 0.004104544409 1.359886483e-05 )
( 0.009000256658 0.003930727486 7.578446912e-06 )
( 0.009696748108 0.003891707398 2.462978955e-05 )
( 0.009466953576 0.003995361272 1.840623372e-05 )
( 0.003353726119 0.0001364005293 2.29456291e-05 )
( 0.003282818478 0.0001410099503 2.276144005e-05 )
( 0.00313564972 0.0001499407954 2.128446977e-05 )
( 0.003210355993 0.0001454610465 2.192330066e-05 )
( 0.003695894964 0.0002364086395 1.810956928e-05 )
( 0.003630025079 0.0002427602594 1.611793414e-05 )
( 0.003497641301 0.0002624301414 1.197991605e-05 )
( 0.003570390865 0.0002517588728 1.406939282e-05 )
( 0.002812511986 0.0001639817347 1.618429269e-05 )
( 0.002896673977 0.0001616499358 1.78426053e-05 )
( 0.003058641683 0.0001541950332 2.036399746e-05 )
( 0.002978963079 0.0001582462282 1.924511525e-05 )
( 0.003419848392 0.0003248818393 -4.202612217e-06 )
( 0.003418487031 0.0003423649177 -8.013435036e-06 )
( 0.006330546923 0.0009367435705 -4.669771897e-06 )
( 0.006252128631 0.0009496894781 -6.514563211e-06 )
( 0.005750723183 0.0007998557994 -9.39761776e-06 )
( 0.005399079062 0.0007125795819 -1.188308215e-05 )
( 0.005704977084 0.0007324990584 -7.55770543e-06 )
( 0.004246799741 0.000498608395 -1.580712342e-05 )
( 0.003399650101 0.0003817582328 -1.527250242e-05 )
( 0.003413897939 0.0003617650655 -1.180571508e-05 )
( 0.005454336293 0.0009091014508 -1.652216451e-05 )
( 0.006068756338 0.0009620472556 -9.536567632e-06 )
( 0.003226156346 0.0003014196118 2.108941771e-06 )
( 0.002489338396 0.0002262134076 -1.834638283e-06 )
( 0.003171028104 0.0002894515055 4.252096915e-06 )
( 0.003400252899 0.0002744470548 9.563696949e-06 )
( 0.00327667431 0.0002855228086 6.825127912e-06 )
( 0.002966777887 6.949238741e-05 1.735089609e-05 )
( 0.00291058654 7.175919018e-05 1.800175596e-05 )
( 0.00279471511 7.652657951e-05 1.865946979e-05 )
( 0.002851320431 7.393889973e-05 1.833692841e-05 )
( 0.002533483552 8.721207996e-05 1.952458297e-05 )
( 0.002601854037 8.452232578e-05 1.947266537e-05 )
( 0.002732154913 7.903639198e-05 1.887330109e-05 )
( 0.002668099245 8.175729454e-05 1.923013951e-05 )
( 0.002496156143 3.443276e-05 3.521862254e-06 )
( 0.002465036931 3.54520671e-05 5.249587048e-06 )
( 0.002381505445 3.718518929e-05 8.269619684e-06 )
( 0.00242400798 3.623588054e-05 6.943481367e-06 )
( 0.002198980888 4.153116606e-05 1.239729045e-05 )
( 0.002248172648 4.034169615e-05 1.169902225e-05 )
( 0.002338308841 3.817499601e-05 9.658194358e-06 )
( 0.002293759258 3.92440852e-05 1.073638487e-05 )
( 0.00648317812 0.001327625941 -1.072019131e-05 )
( 0.006471286528 0.001378862071 -1.218948182e-05 )
( 0.0069346698 0.001701315516 -7.512558113e-06 )
( 0.006804337725 0.001616887865 -9.742275324e-06 )
( 0.005749547388 0.001322290045 -1.747588794e-05 )
( 0.005967122503 0.001319954288 -1.694648199e-05 )
( 0.005832223687 0.001144698355 -1.721313492e-05 )
( 0.006546477787 0.00123929535 -9.720064554e-06 )
( 0.005503799301 0.0009571789997 -1.717098894e-05 )
( 0.005472300109 0.0009825775633 -1.868935033e-05 )
( 0.007392626721 0.0019975428 -4.672381237e-06 )
( 0.007407815196 0.002123975893 -4.109854672e-06 )
( 0.007307128049 0.002028464107 -5.267417237e-06 )
( 0.007159609813 0.002127865097 -6.934937119e-06 )
( 0.006802276243 0.001798827085 -9.352487723e-06 )
( 0.006803994533 0.001737852581 -8.516532034e-06 )
( 0.008928521536 0.003714552615 7.809836461e-06 )
( 0.008592873812 0.003590947017 1.334336503e-06 )
( 0.008654165082 0.003536522156 3.514923264e-06 )
( 0.008302568458 0.003362059128 8.478298241e-08 )
( 0.007913121954 0.003246920183 -3.900080628e-06 )
( 0.007635707036 0.003098932561 -3.420338771e-06 )
( 0.007757055108 0.003068672959 -4.38267125e-06 )
( 0.008288986981 0.003066976555 5.113258794e-08 )
( 0.007272134535 0.00270417612 -7.109254966e-06 )
( 0.007544259075 0.002850829624 -7.13555437e-06 )
( 0.007875645533 0.002804352902 -5.41606687e-06 )
( 0.007479946129 0.002644789871 -7.003111477e-06 )
( 0.006776692811 0.002355590928 -8.7464432e-06 )
( 0.006417964585 0.002192073967 -8.773179616e-06 )
( 0.006514957175 0.002160629723 -9.086704267e-06 )
( 0.00707254 0.002189534716 -9.173542821e-06 )
( 0.006674843375 0.002154895337 -1.032184355e-05 )
( 0.0108845979 0.005360374227 3.728465163e-05 )
( 0.01044881903 0.005118643865 3.117312372e-05 )
( 0.01017793361 0.004878120497 2.828786819e-05 )
( 0.01010064408 0.004753766581 2.871465949e-05 )
( 0.00964792911 0.004488450009 2.06985078e-05 )
( 0.01006440632 0.004748655017 2.790906001e-05 )
( 0.0096733924 0.004613348283 2.108230001e-05 )
( 0.009305070154 0.004378953483 1.210430491e-05 )
( 0.009362677112 0.004325442947 1.362636522e-05 )
( 0.009614679962 0.004482377786 1.989919838e-05 )
( 0.009015871212 0.004149983171 8.938503925e-06 )
( 0.00863926392 0.004037771374 3.435379085e-06 )
( 0.00839276053 0.003898377065 2.998808668e-06 )
( 0.008533000946 0.003818398342 1.099001338e-06 )
( 0.008640307933 0.003751823213 3.534910093e-06 )
( 0.002466943813 9.024253086e-05 1.953047104e-05 )