/*--------------------------------*- C++ -*----------------------------------*\
  =========                 |
  \\      /  F ield         | OpenFOAM: The Open Source CFD Toolbox
   \\    /   O peration     | Website:  https://openfoam.org
    \\  /    A nd           | Version:  8
     \\/     M anipulation  |
\*---------------------------------------------------------------------------*/






FoamFile
{
    version     2.0;
    format      ascii;
    class       volScalarField;
    location    "0";
    object      V;
}
// * * * * * * * * * * * * * * * * * * * * * * * * * * * * * * * * * * * * * //

dimensions      [0 3 0 0 0 0 0];


internalField   nonuniform List<scalar> 
20961
(
0.001014182627
0.0009761875157
0.001009103254
0.0009347841331
0.0009713309808
0.0009999723376
0.0009287902461
0.0003418072824
0.0003409782642
0.0009685288801
0.000997809302
0.0009223286759
0.0003387880131
0.0003375224249
0.0003197657977
0.0003185447282
0.000937537711
0.0009944844763
0.0003336735907
0.0003330751219
0.0009595776932
0.000316927899
0.0003144412411
0.0001120785341
0.0001118593862
0.0001114212677
0.0001117103527
0.0009809697929
0.0009891124201
0.0003112173374
0.000305535006
0.0003194707769
0.0003205234126
0.0003120323485
0.0003275725207
0.00011115013
0.0001107566373
0.0001097534507
0.0001103044765
0.0001012893729
0.0001011608289
0.000100789892
0.0001009912299
0.0003463699676
0.0009464435067
0.0009762834918
0.0001089863103
0.0001081609821
0.0002991688346
0.0001059482335
0.0001071157055
0.0003231451084
0.000328062015
0.0002960937879
0.0001005303671
0.0001002121063
9.930020959e-05
9.980998891e-05
3.343564871e-05
3.338220608e-05
3.333963879e-05
3.340066364e-05
3.322084765e-05
3.330130516e-05
3.335699855e-05
3.328704297e-05
0.0003475798759
0.000344624091
0.0009329249156
0.0009355146492
9.866438828e-05
9.787248593e-05
0.0001049322894
0.0001037772661
9.578361722e-05
9.690814649e-05
0.000307825027
0.0003226554269
0.0003290501194
0.0001018973095
0.000102803711
3.323086469e-05
3.31379253e-05
3.303309946e-05
3.314090562e-05
3.273011252e-05
3.287928371e-05
3.302613375e-05
3.289983304e-05
2.876736244e-05
2.87576939e-05
2.872700082e-05
2.873970498e-05
2.863876994e-05
2.866082022e-05
2.870494221e-05
2.868821777e-05
0.0003254287662
0.0003408719002
0.0003388877361
0.0009612657117
0.000969811339
3.269211822e-05
3.251506979e-05
3.224267294e-05
3.245433517e-05
9.455888438e-05
9.348947954e-05
3.14535557e-05
3.176895504e-05
3.215253529e-05
3.189581393e-05
9.847387537e-05
9.220144333e-05
0.0001007594184
0.000106477667
0.0003095821847
0.0001110168335
9.094216773e-05
9.262074652e-05
2.860466274e-05
2.85756572e-05
2.849473979e-05
2.853289466e-05
2.825545184e-05
2.832177991e-05
2.84408012e-05
2.839049204e-05
2.466979882e-05
2.465975457e-05
2.463642881e-05
2.464909754e-05
2.456858299e-05
2.45892265e-05
2.462283514e-05
2.460672437e-05
0.0003120808294
0.0003036924175
0.000322504749
0.0003256110502
0.0003014967875
0.0003190901611
0.0003165049204
0.0009754959351
0.0003376933234
2.816790387e-05
2.808111771e-05
2.78554303e-05
2.796926186e-05
3.129647195e-05
3.092983246e-05
3.050602797e-05
3.079451173e-05
2.716112711e-05
2.736741547e-05
2.771099632e-05
2.755947966e-05
8.848977338e-05
0.0001045363318
9.096359782e-05
0.0001022735554
0.0001101026745
0.0001083097527
3.041258654e-05
3.081735335e-05
3.066479777e-05
3.070648343e-05
2.4545993e-05
2.451949449e-05
2.445624005e-05
2.449030437e-05
2.426733989e-05
2.432528393e-05
2.441853108e-05
2.437462556e-05
2.185091322e-05
2.184340051e-05
2.182531109e-05
2.183486624e-05
2.177220536e-05
2.178814433e-05
2.181444157e-05
2.180219197e-05
0.0003114651757
0.0001057577654
0.0001067758094
0.0003045122178
0.000108458323
0.0001043216733
0.0003325680579
0.000309460296
0.0003083744424
0.0003050099869
0.0003269161686
0.0003046777427
2.420171254e-05
2.412508487e-05
2.393763585e-05
2.40382842e-05
2.690710885e-05
2.664502114e-05
2.614287571e-05
2.63576794e-05
2.334343902e-05
2.353536807e-05
2.382375134e-05
2.369094289e-05
2.99709977e-05
2.896991229e-05
9.509598127e-05
3.132111263e-05
3.263345687e-05
2.598852197e-05
2.890471187e-05
2.746308376e-05
0.0001005705607
9.868667518e-05
2.753377654e-05
2.755135204e-05
2.61247092e-05
2.701892295e-05
2.175400986e-05
2.173338959e-05
2.168317354e-05
2.170985338e-05
2.153354711e-05
2.157945762e-05
2.165279581e-05
2.161849733e-05
2.122190591e-05
2.121579896e-05
2.120054537e-05
2.12087361e-05
2.115651799e-05
2.116989168e-05
2.119181519e-05
2.118164701e-05
0.0001016860989
9.385725061e-05
0.0001004331292
9.781719176e-05
9.428813255e-05
0.0001081604835
0.0001063081235
0.0001011021696
0.0003155672569
0.0001032340988
0.0001078995056
9.986636872e-05
9.304144846e-05
0.0001017325817
0.0003168893475
0.000347181327
0.0003243086325
0.0003133017637
2.147900575e-05
2.141489916e-05
2.125473297e-05
2.134017655e-05
2.310794947e-05
2.282001584e-05
2.211069539e-05
2.248375121e-05
2.073546498e-05
2.090576625e-05
2.115590534e-05
2.104109202e-05
2.660679091e-05
2.496210479e-05
9.189875311e-05
3.195042265e-05
3.289645226e-05
2.918082778e-05
2.837842728e-05
2.274994678e-05
2.360691077e-05
8.874590853e-05
2.653943268e-05
2.633600901e-05
2.177867471e-05
2.170529134e-05
2.114122495e-05
2.112398665e-05
2.108178951e-05
2.110430722e-05
2.095746408e-05
2.099320596e-05
2.105616787e-05
2.102663463e-05
1.715540588e-05
1.715152474e-05
1.714081462e-05
1.714673582e-05
1.711148721e-05
1.712053847e-05
1.713537203e-05
1.712859694e-05
9.220298375e-05
0.0001043937089
9.358186886e-05
3.136614268e-05
3.017911407e-05
8.999823062e-05
9.649619554e-05
9.954478082e-05
9.383178013e-05
0.0001030263375
0.0001007290413
9.715339746e-05
0.0001054672024
9.700437731e-05
0.0001028561798
9.279119539e-05
9.249938911e-05
0.0001075768481
0.0001075434001
0.0001047333732
9.918285178e-05
0.0001017916744
0.0001115465496
9.847828975e-05
9.498231698e-05
0.0001034263628
2.091014018e-05
2.084955533e-05
2.070428489e-05
2.078264605e-05
2.049850529e-05
2.017118878e-05
1.915661354e-05
1.973304969e-05
2.015826894e-05
2.033865663e-05
2.060900138e-05
2.048925817e-05
2.311685174e-05
2.171156894e-05
3.109673975e-05
3.032458304e-05
2.797010228e-05
2.876029883e-05
2.682177769e-05
2.220715279e-05
1.922855628e-05
2.050440191e-05
2.909427814e-05
2.974094379e-05
2.037236202e-05
1.314686821e-05
1.83559729e-05
1.713264006e-05
1.710096961e-05
1.708942056e-05
1.706085423e-05
1.707611688e-05
1.697774537e-05
1.700172067e-05
1.704385619e-05
1.702416312e-05
1.386742873e-05
1.386502581e-05
1.38575355e-05
1.386180606e-05
1.383823734e-05
1.384430936e-05
1.3854255e-05
1.384979716e-05
3.126388911e-05
3.06635022e-05
3.157816749e-05
3.248714896e-05
2.746044742e-05
2.937758341e-05
2.926282519e-05
2.783882145e-05
2.803095223e-05
2.747699501e-05
2.579593114e-05
9.419069102e-05
3.238878618e-05
3.126782229e-05
3.162445862e-05
3.258403069e-05
0.0001052020904
9.692313069e-05
9.783523299e-05
9.950063409e-05
9.649975058e-05
3.100685058e-05
3.192820244e-05
2.76587845e-05
2.884827725e-05
2.915822992e-05
3.205548473e-05
3.093650169e-05
0.0001037795236
0.0001057349766
9.518982669e-05
0.0001030022722
9.589522749e-05
9.827357614e-05
1.694562432e-05
1.690391067e-05
1.680540203e-05
1.685835954e-05
1.991683353e-05
1.949633895e-05
1.802319696e-05
1.886713519e-05
1.643641386e-05
1.655988349e-05
1.67417028e-05
1.666147371e-05
2.02037778e-05
1.956216545e-05
2.689824334e-05
2.598941381e-05
2.468911008e-05
2.606445133e-05
2.628130411e-05
1.765921846e-05
1.723060691e-05
1.859615929e-05
2.547039712e-05
2.597771577e-05
1.292543249e-05
1.610944449e-05
1.045134069e-05
1.677154611e-05
1.457065098e-05
1.383104885e-05
1.382339247e-05
1.380421689e-05
1.381447855e-05
1.374916309e-05
1.376514252e-05
1.379307753e-05
1.378008496e-05
1.120916856e-05
1.120774141e-05
1.120253715e-05
1.120560575e-05
1.11900745e-05
1.119409284e-05
1.120066975e-05
1.119779031e-05
2.727338686e-05
2.718642546e-05
2.91650195e-05
2.932797772e-05
2.515381288e-05
2.627835223e-05
2.531749192e-05
2.752401526e-05
2.437001197e-05
2.295260195e-05
2.96939636e-05
2.766919826e-05
2.92974057e-05
2.903224049e-05
2.802954986e-05
2.839575826e-05
9.729185417e-05
3.233465952e-05
3.300933586e-05
3.028576833e-05
2.977964342e-05
3.121490524e-05
3.177756197e-05
3.268890665e-05
2.951859401e-05
3.092162741e-05
2.983656664e-05
2.889285992e-05
2.847767626e-05
2.394146477e-05
2.600372101e-05
2.895901898e-05
2.790001956e-05
9.788946712e-05
0.000101235522
0.0001025713586
9.433462685e-05
3.1676895e-05
3.220351179e-05
2.874965167e-05
3.057739381e-05
3.048218605e-05
3.152876297e-05
3.217824404e-05
1.372756475e-05
1.369913492e-05
1.363299763e-05
1.366844004e-05
1.626620059e-05
1.596293746e-05
1.483399191e-05
1.548505343e-05
1.338481901e-05
1.346935807e-05
1.359084622e-05
1.353753012e-05
1.615653179e-05
1.582152267e-05
2.294609004e-05
2.170436345e-05
2.149911931e-05
2.540339356e-05
1.335356405e-05
1.493159841e-05
1.419234887e-05
1.51836356e-05
2.429125667e-05
2.084185664e-05
1.088466673e-05
1.27962584e-05
9.34452076e-06
1.387986784e-05
1.226326119e-05
1.118520888e-05
1.118021514e-05
1.116750952e-05
1.117432377e-05
1.113154683e-05
1.114209124e-05
1.116034611e-05
1.115191249e-05
9.060177867e-06
9.059390127e-06
9.055809502e-06
9.05800192e-06
9.047992096e-06
9.050596914e-06
9.054854755e-06
9.053048755e-06
2.408051408e-05
2.265306563e-05
2.680421353e-05
2.361521072e-05
2.323312659e-05
2.540508202e-05
2.446966277e-05
2.142821234e-05
2.305169319e-05
1.905632537e-05
2.677187689e-05
2.919717385e-05
2.530086772e-05
2.648673709e-05
2.33879921e-05
2.518816989e-05
2.969671513e-05
2.990624724e-05
3.162407922e-05
3.012122973e-05
3.046380272e-05
2.66355536e-05
2.834827686e-05
2.976871992e-05
2.629479505e-05
3.012563541e-05
2.775573704e-05
2.524490714e-05
2.588414484e-05
1.862345066e-05
2.412312006e-05
2.495848306e-05
2.766193229e-05
9.957520784e-05
9.728048815e-05
3.34122601e-05
3.307444798e-05
2.970907317e-05
3.101438739e-05
3.047204791e-05
2.86144932e-05
3.138598979e-05
2.885717285e-05
2.953634101e-05
2.949740121e-05
2.54300367e-05
2.756356484e-05
2.932758208e-05
1.111723127e-05
1.109814668e-05
1.10544077e-05
1.107777904e-05
1.326453474e-05
1.304704875e-05
1.218706404e-05
1.268667189e-05
1.088875807e-05
1.094659163e-05
1.102694795e-05
1.099195795e-05
1.2945986e-05
1.279600996e-05
1.983566082e-05
1.833717489e-05
1.968361087e-05
2.029534696e-05
1.307327648e-05
1.065729397e-05
1.252229376e-05
1.166822251e-05
1.238263634e-05
1.227553094e-05
1.658350171e-05
9.119670411e-06
1.020366113e-05
8.200761262e-06
1.146148294e-05
1.027341652e-05
9.044746692e-06
9.041570616e-06
9.033317583e-06
9.037756426e-06
9.010324384e-06
9.017174826e-06
9.028843143e-06
9.023504825e-06
7.322993047e-06
7.322618773e-06
7.320190485e-06
7.321744625e-06
7.315513585e-06
7.317148728e-06
7.319815711e-06
7.318735996e-06
2.235986414e-05
1.777922563e-05
2.61902014e-05
1.842960865e-05
1.735806627e-05
1.267084832e-05
1.218439469e-05
1.676663772e-05
1.78530641e-05
1.633506111e-05
2.589007515e-05
2.34411363e-05
2.332978636e-05
2.561834093e-05
1.833238001e-05
2.338967614e-05
3.014107558e-05
2.6738752e-05
2.860081921e-05
2.667669701e-05
2.862755638e-05
2.325806771e-05
2.818338961e-05
2.64172021e-05
2.292955747e-05
2.837669878e-05
2.734592994e-05
2.222880889e-05
1.277939947e-05
1.457929805e-05
1.785417731e-05
2.192229661e-05
1.386419866e-05
3.218718746e-05
3.170444335e-05
3.121955827e-05
2.925150077e-05
3.059449761e-05
3.045841403e-05
3.144030013e-05
2.780093549e-05
2.91046854e-05
2.794618487e-05
2.736853705e-05
3.035371056e-05
2.665788349e-05
2.203805797e-05
2.740948926e-05
2.607995403e-05
9.00103894e-06
8.988513262e-06
8.960241538e-06
8.975309818e-06
1.080363465e-05
1.064887784e-05
9.997927739e-06
1.037921494e-05
8.850974415e-06
8.890440846e-06
8.942775483e-06
8.920247374e-06
1.039057333e-05
1.034896382e-05
1.853293373e-05
1.697178626e-05
1.567863668e-05
1.598488559e-05
1.09573813e-05
9.474902399e-06
1.045889333e-05
9.578794043e-06
1.008874135e-05
1.215697978e-05
1.011245021e-05
1.44331808e-05
7.610431225e-06
8.162814259e-06
7.100184256e-06
9.447754115e-06
8.57489415e-06
7.313396155e-06
7.311455229e-06
7.306256646e-06
7.309063709e-06
7.292041909e-06
7.296387951e-06
7.303591393e-06
7.300344619e-06
5.918767161e-06
5.918655637e-06
5.917043528e-06
5.918132605e-06
5.914471217e-06
5.915445226e-06
5.917027733e-06
5.91643445e-06
1.693697496e-05
1.437105617e-05
1.305133386e-05
1.463714944e-05
1.214749237e-05
1.384625661e-05
1.005316044e-05
9.68782205e-06
1.16765238e-05
1.38312241e-05
1.427885974e-05
1.328964904e-05
1.291305986e-05
1.829560266e-05
1.737307492e-05
1.267478592e-05
1.474512506e-05
1.756900379e-05
2.85017961e-05
2.337910063e-05
2.838236253e-05
2.369614268e-05
1.423339379e-05
1.624084476e-05
1.416475514e-05
2.355135002e-05
1.413482733e-05
1.600585057e-05
1.362369432e-05
1.532424212e-05
1.168740232e-05
9.922296651e-06
1.197995897e-05
1.413773385e-05
1.293598452e-05
1.576013734e-05
1.083671412e-05
2.928267679e-05
2.839898797e-05
2.589335914e-05
2.957781075e-05
2.726697096e-05
3.047854438e-05
2.721681387e-05
1.457891116e-05
2.333505157e-05
2.459336942e-05
1.769939684e-05
1.282084939e-05
1.536074752e-05
1.382406788e-05
2.333429378e-05
7.286218213e-06
7.278275563e-06
7.26064124e-06
7.270020485e-06
8.790715264e-06
8.681764162e-06
8.192447399e-06
8.481735721e-06
7.189848285e-06
7.216656863e-06
7.249943568e-06
7.235862492e-06
8.350885099e-06
8.369819051e-06
1.496856552e-05
1.390856833e-05
1.253662465e-05
1.266108713e-05
9.151779982e-06
8.283506964e-06
8.707222324e-06
7.854142475e-06
8.213503304e-06
1.02830033e-05
9.018947368e-06
1.210204508e-05
6.330907538e-06
6.547986927e-06
6.085367411e-06
7.776750221e-06
7.136291323e-06
5.913135628e-06
5.912028281e-06
5.908912209e-06
5.91060545e-06
5.900602361e-06
5.90325788e-06
5.907454805e-06
5.905610331e-06
4.783727395e-06
4.783777801e-06
4.782741055e-06
4.783492232e-06
4.781560266e-06
4.782087983e-06
4.782938134e-06
4.782666425e-06
1.356119702e-05
1.184602855e-05
1.229643451e-05
1.018894995e-05
1.20394588e-05
1.019029353e-05
1.109707297e-05
8.850590202e-06
8.619995455e-06
9.854319471e-06
1.155623119e-05
1.146914096e-05
1.08316318e-05
1.227139608e-05
1.022991204e-05
1.448644013e-05
1.385008692e-05
1.187051937e-05
9.999262624e-06
1.209210104e-05
1.397110939e-05
1.423932968e-05
1.629180132e-05
1.422742196e-05
1.626399521e-05
1.262514606e-05
1.080978291e-05
1.299709916e-05
1.267964619e-05
1.087015765e-05
1.621813676e-05
1.074195942e-05
1.257786547e-05
1.284953028e-05
1.227870396e-05
1.044087026e-05
1.242410436e-05
9.848316774e-06
8.740229443e-06
9.844586115e-06
1.125403704e-05
1.069218732e-05
1.270430781e-05
9.329374787e-06
3.002652071e-05
2.843261623e-05
2.25721549e-05
2.683269783e-05
2.488529474e-05
1.769071855e-05
1.3479804e-05
1.293358078e-05
1.129018906e-05
1.614340798e-05
1.728903637e-05
1.381523582e-05
1.238633123e-05
1.132354812e-05
1.000031345e-05
1.229002181e-05
1.236522234e-05
1.068025258e-05
1.612158797e-05
5.897146557e-06
5.892383232e-06
5.88201481e-06
5.887522044e-06
7.147236057e-06
7.071645083e-06
6.706687122e-06
6.924767406e-06
5.83740093e-06
5.855474054e-06
5.875868768e-06
5.867481116e-06
6.719039077e-06
6.769129812e-06
1.211317164e-05
1.139865577e-05
1.005695099e-05
1.007765962e-05
7.622366094e-06
7.153181209e-06
7.230195255e-06
6.433822305e-06
6.682705894e-06
8.660394123e-06
7.913900128e-06
1.011529835e-05
5.253254192e-06
5.264584637e-06
5.175424059e-06
6.393940375e-06
5.925148124e-06
4.780763517e-06
4.780211668e-06
4.778503167e-06
4.779442517e-06
4.774125801e-06
4.775647618e-06
4.777840486e-06
4.776926246e-06
3.86630049e-06
3.866445058e-06
3.865811128e-06
3.866318294e-06
3.865532051e-06
3.865762722e-06
3.866125776e-06
3.866062834e-06
1.090788663e-05
9.76905461e-06
1.028621909e-05
8.94376192e-06
9.907124858e-06
8.525408684e-06
8.93010109e-06
7.693805165e-06
7.558581976e-06
8.290379781e-06
9.637831825e-06
9.246263479e-06
8.841662386e-06
1.026601818e-05
8.961952463e-06
1.192684362e-05
1.109469846e-05
9.973067934e-06
8.800003813e-06
9.926350433e-06
1.116720922e-05
1.260868791e-05
1.08318506e-05
1.302925876e-05
1.269018985e-05
1.090289681e-05
1.301856921e-05
1.045286275e-05
9.283689136e-06
1.044429547e-05
1.049125836e-05
9.334231465e-06
1.299124716e-05
9.24504409e-06
1.042596747e-05
1.035395395e-05
1.021757509e-05
9.056399455e-06
1.009822204e-05
8.265970923e-06
7.592983236e-06
8.090211147e-06
8.999617648e-06
8.83140544e-06
1.027738808e-05
7.964209676e-06
1.751730987e-05
1.445777558e-05
1.297064646e-05
1.58909803e-05
1.746728305e-05
1.416760543e-05
1.290319608e-05
1.054008707e-05
1.184868081e-05
1.067763408e-05
9.62208706e-06
1.292605672e-05
1.365608062e-05
1.123636789e-05
1.033971261e-05
9.52824444e-06
8.652497e-06
1.020303805e-05
9.989802881e-06
9.194531005e-06
1.292584801e-05
4.772273047e-06
4.76969216e-06
4.764234953e-06
4.767134158e-06
5.807350203e-06
5.755957839e-06
5.486200581e-06
5.649411061e-06
4.737342199e-06
4.749384659e-06
4.761115506e-06
4.756531693e-06
5.41096984e-06
5.474541867e-06
9.818290836e-06
9.34197334e-06
8.089865454e-06
8.055241766e-06
6.33432853e-06
6.119971631e-06
5.991277207e-06
5.266258305e-06
5.434514484e-06
7.268789245e-06
6.861315457e-06
8.433260399e-06
4.350259041e-06
4.240743518e-06
4.375225139e-06
5.252125362e-06
4.910293425e-06
3.865103026e-06
3.864914929e-06
3.864144941e-06
3.864580306e-06
3.862346702e-06
3.863116542e-06
3.863994173e-06
3.863685863e-06
3.124783376e-06
3.124978126e-06
3.124623499e-06
3.124955e-06
3.124910498e-06
3.124947623e-06
3.124993874e-06
3.125061874e-06
8.808531886e-06
8.059262318e-06
8.586034755e-06
7.755336164e-06
8.155424757e-06
7.117049753e-06
7.211522948e-06
6.624612031e-06
6.555900518e-06
6.957010815e-06
8.025995643e-06
7.477680734e-06
7.226448846e-06
8.569884617e-06
7.760214567e-06
9.822305521e-06
8.924621673e-06
8.354017763e-06
7.644837156e-06
8.155304787e-06
8.966084153e-06
1.045155202e-05
9.300635583e-06
1.046411342e-05
1.049541637e-05
9.357833393e-06
1.046313984e-05
8.644509636e-06
7.906036142e-06
8.422730639e-06
8.672122092e-06
7.947891231e-06
1.044740615e-05
7.884496216e-06
8.629521846e-06
8.36952621e-06
8.48704087e-06
7.774666874e-06
8.225240176e-06
6.916095859e-06
6.52833002e-06
6.648748516e-06
7.225192896e-06
7.290311968e-06
8.339380015e-06
6.754627085e-06
1.24081515e-05
1.365345274e-05
1.289763852e-05
1.135040034e-05
1.022672547e-05
1.145414725e-05
1.270277941e-05
1.376266104e-05
1.146803396e-05
1.069045641e-05
9.09291846e-06
9.924309653e-06
8.802255876e-06
8.135311721e-06
1.038697306e-05
1.084377088e-05
9.149169884e-06
8.606401504e-06
7.988578946e-06
7.416352361e-06
8.459960958e-06
8.095647635e-06
7.847225673e-06
1.040411371e-05
3.861562536e-06
3.860457228e-06
3.858266853e-06
3.859436905e-06
4.7162523e-06
4.682314654e-06
4.485053184e-06
4.606177659e-06
3.843270953e-06
3.851154582e-06
3.857126767e-06
3.85504952e-06
4.360774255e-06
4.427527931e-06
7.968834253e-06
7.656587394e-06
6.522459596e-06
6.461881253e-06
5.254458085e-06
5.198773337e-06
4.9563652e-06
4.307872046e-06
4.417691449e-06
6.084013452e-06
5.894867359e-06
7.016558707e-06
3.596653284e-06
3.421373914e-06
3.681373265e-06
4.310961598e-06
4.063074165e-06
3.124728247e-06
3.124772246e-06
3.124614619e-06
3.12472012e-06
3.124468885e-06
3.124748733e-06
3.124783617e-06
3.124859241e-06
7.137546783e-06
6.650797352e-06
7.154333121e-06
6.662958419e-06
6.715483159e-06
5.930911041e-06
5.841130668e-06
5.662229778e-06
5.639008241e-06
5.826142171e-06
6.675664514e-06
6.063547003e-06
5.91255239e-06
7.141528956e-06
6.660489977e-06
8.091046426e-06
7.204816175e-06
6.981076492e-06
6.576850134e-06
6.704914034e-06
7.226718592e-06
8.651623562e-06
7.918960522e-06
8.434507873e-06
8.672393601e-06
7.965049626e-06
8.438632102e-06
7.142403261e-06
6.689128237e-06
6.813032397e-06
7.162743146e-06
6.723498397e-06
8.430000172e-06
6.677269279e-06
7.134103452e-06
6.78364651e-06
7.039277479e-06
6.621872842e-06
6.711650777e-06
5.772095199e-06
5.568735071e-06
5.464313041e-06
5.820150302e-06
6.015361552e-06
6.784338295e-06
5.699583492e-06
1.032774408e-05
1.110480707e-05
1.061357838e-05
9.621629014e-06
8.792450274e-06
9.607279686e-06
1.019954404e-05
1.090604508e-05
9.299701704e-06
8.83995243e-06
7.763995716e-06
8.281852501e-06
7.247672559e-06
6.836115319e-06
8.372001556e-06
8.650138915e-06
7.456627148e-06
7.147108077e-06
6.678337301e-06
6.311113073e-06
7.007601764e-06
6.577876431e-06
6.652775023e-06
8.402388345e-06
3.124381463e-06
3.124251023e-06
3.124182767e-06
3.124233144e-06
3.828580967e-06
3.807136882e-06
3.664768576e-06
3.753769299e-06
3.117072739e-06
3.122095726e-06
3.124304138e-06
3.123844753e-06
3.516519244e-06
3.580748428e-06
6.474917309e-06
6.275405107e-06
5.268784102e-06
5.199506534e-06
4.352340308e-06
4.391751327e-06
4.094692988e-06
3.522111354e-06
3.589962912e-06
5.081065443e-06
5.029144689e-06
5.828206036e-06
2.969723264e-06
2.763894103e-06
3.086015907e-06
3.536287021e-06
3.35789256e-06
5.800472054e-06
5.489909231e-06
5.952899737e-06
5.683839001e-06
5.531178305e-06
4.935412681e-06
4.743172518e-06
4.81195632e-06
4.819026084e-06
4.870984082e-06
5.547055724e-06
4.92794118e-06
4.841799029e-06
5.942828827e-06
5.677711093e-06
6.666257694e-06
5.834287703e-06
5.822496047e-06
5.615861528e-06
5.515668869e-06
5.8441347e-06
7.153731273e-06
6.698915961e-06
6.81962546e-06
7.160759913e-06
6.736083836e-06
6.826040405e-06
5.89687894e-06
5.630799505e-06
5.525112217e-06
5.912259349e-06
5.65883615e-06
6.821645223e-06
5.624148973e-06
5.892124263e-06
5.51075758e-06
5.831540704e-06
5.605612805e-06
5.484807452e-06
4.807549272e-06
4.721128612e-06
4.491020148e-06
4.701715298e-06
4.961516094e-06
5.531358215e-06
4.789950453e-06
8.579751333e-06
9.04632744e-06
8.733379282e-06
8.107333893e-06
7.500120496e-06
8.035947747e-06
8.221173044e-06
8.685632337e-06
7.552750001e-06
7.298308654e-06
6.577520731e-06
6.89094234e-06
5.961931997e-06
5.716900779e-06
6.765204485e-06
6.927398283e-06
6.0818921e-06
5.924204564e-06
5.570012449e-06
5.340462788e-06
5.799808308e-06
5.356534413e-06
5.610781992e-06
6.805116817e-06
3.106953464e-06
3.094358898e-06
2.993295437e-06
3.057905111e-06
2.837098543e-06
2.895913463e-06
5.265872826e-06
5.143476729e-06
4.262821762e-06
4.194488418e-06
3.600858596e-06
3.693785282e-06
3.379131651e-06
2.878492474e-06
2.916565171e-06
4.235846736e-06
4.267080276e-06
4.834633979e-06
2.449498624e-06
2.579239015e-06
2.899378518e-06
2.772326561e-06
4.725604564e-06
4.53263483e-06
4.947501245e-06
4.821698299e-06
4.556690797e-06
4.102248185e-06
3.859855055e-06
4.070861441e-06
4.097326426e-06
4.066898813e-06
4.605547422e-06
4.012613236e-06
3.967850792e-06
4.93964173e-06
4.814127426e-06
5.493276115e-06
4.736785391e-06
4.848579982e-06
4.767391114e-06
4.539550679e-06
4.73943316e-06
5.909846403e-06
5.638154885e-06
5.528413168e-06
5.909072632e-06
5.668151582e-06
5.535473324e-06
4.865580437e-06
4.720902527e-06
4.49034968e-06
4.877524503e-06
4.743648653e-06
5.53351212e-06
4.716840774e-06
4.862536122e-06
4.48526195e-06
4.826349183e-06
4.722585878e-06
4.487841846e-06
3.997608231e-06
3.983285691e-06
3.691193258e-06
3.807338489e-06
4.091051726e-06
4.518115622e-06
4.012545838e-06
7.116598712e-06
7.379247164e-06
7.185843663e-06
6.799314646e-06
6.358814649e-06
6.706660287e-06
6.648437059e-06
6.947175806e-06
6.141668245e-06
6.01787998e-06
5.538698008e-06
5.720158269e-06
4.900478056e-06
4.762875302e-06
5.478545958e-06
5.566299259e-06
4.963783293e-06
4.903152954e-06
4.636899168e-06
4.499102152e-06
4.796966708e-06
4.370127734e-06
4.712529334e-06
5.52475894e-06
4.285814777e-06
4.215791347e-06
3.453447294e-06
3.391008501e-06
2.976285863e-06
3.095939085e-06
2.786148969e-06
3.52609093e-06
3.604806165e-06
4.006077338e-06
3.858030033e-06
3.742957025e-06
4.108034058e-06
4.072381068e-06
3.754549157e-06
3.406513231e-06
3.146694172e-06
3.431472464e-06
3.469602394e-06
3.391791376e-06
3.82132756e-06
3.272490633e-06
3.253618793e-06
4.101951038e-06
4.064643705e-06
4.527317552e-06
3.854205598e-06
4.032419243e-06
4.028530376e-06
3.73768006e-06
3.85275937e-06
4.878668702e-06
4.726382092e-06
4.491603514e-06
4.873801019e-06
4.750608548e-06
4.49839786e-06
4.012646754e-06
3.945392418e-06
3.65600697e-06
4.022162316e-06
3.9637624e-06
4.49775707e-06
3.942446206e-06
4.01029094e-06
3.656435226e-06
3.991282799e-06
3.963545023e-06
3.675930728e-06
3.319689356e-06
3.347929994e-06
3.033889558e-06
3.089311691e-06
3.372475078e-06
3.696202714e-06
3.3526325e-06
5.895557403e-06
6.026063719e-06
5.912255766e-06
5.681166845e-06
5.365390417e-06
5.587180299e-06
5.391701078e-06
5.577222482e-06
4.999417123e-06
4.95699043e-06
4.641884158e-06
4.739315605e-06
4.025470654e-06
3.956153863e-06
4.44456553e-06
4.48525609e-06
4.053375965e-06
4.053127042e-06
3.854229666e-06
3.776942939e-06
3.965354776e-06
3.570968588e-06
3.945112724e-06
4.494392961e-06
3.490321458e-06
3.45547563e-06
2.80077224e-06
2.746357881e-06
2.458141774e-06
2.58762678e-06
2.931789317e-06
3.034786917e-06
3.31657651e-06
3.15532853e-06
3.091323171e-06
3.408382343e-06
3.427469419e-06
3.09406807e-06
2.826596105e-06
2.56916735e-06
2.884119184e-06
2.928502546e-06
2.826192002e-06
3.168936295e-06
2.672422052e-06
2.66928928e-06
3.40371496e-06
3.420253957e-06
3.731650087e-06
3.14187961e-06
3.350154868e-06
3.39173118e-06
3.078483093e-06
3.138291659e-06
4.025013171e-06
3.949432094e-06
3.656026473e-06
4.018312775e-06
3.96901228e-06
3.662099433e-06
3.307891571e-06
3.288831352e-06
2.981210152e-06
3.315647842e-06
3.303610199e-06
3.662108864e-06
3.286222604e-06
3.305694471e-06
2.984741086e-06
3.298586951e-06
3.316404957e-06
3.013522753e-06
2.753743973e-06
2.805327768e-06
2.49369315e-06
2.510921597e-06
2.779561306e-06
3.027733579e-06
2.795409941e-06
4.879025562e-06
4.925565083e-06
4.86421465e-06
4.732862457e-06
4.509972181e-06
4.647758266e-06
4.382943836e-06
4.491480377e-06
4.073111578e-06
4.079714323e-06
3.875739816e-06
3.920663808e-06
3.30501261e-06
3.278193215e-06
3.611125353e-06
3.622732051e-06
3.311396946e-06
3.347137465e-06
3.199706442e-06
3.16174826e-06
3.276447208e-06
2.921783907e-06
3.293988332e-06
3.662407036e-06
2.843927959e-06
2.832318625e-06
2.435303772e-06
2.547798488e-06
2.743765126e-06
2.584467428e-06
2.553457852e-06
2.826116288e-06
2.87657379e-06
2.550089702e-06
2.343929397e-06
2.418392274e-06
2.465305139e-06
2.353164282e-06
2.626765951e-06
2.822569343e-06
2.870204313e-06
3.076119761e-06
2.56517649e-06
2.780962955e-06
2.847214448e-06
2.53625172e-06
2.560649448e-06
3.319114385e-06
3.291772262e-06
2.980522951e-06
3.31191476e-06
3.307606166e-06
2.985693272e-06
2.726016279e-06
2.735871882e-06
2.434039036e-06
2.732461403e-06
2.747722914e-06
2.985963087e-06
2.733232833e-06
2.723737974e-06
2.439141886e-06
2.724686644e-06
2.768154446e-06
2.472264139e-06
2.282263836e-06
2.34489313e-06
2.290522559e-06
2.482846322e-06
2.326861146e-06
4.034398488e-06
4.029128321e-06
4.001839509e-06
3.933504924e-06
3.779419321e-06
3.861686284e-06
3.570077927e-06
3.626695698e-06
3.320795732e-06
3.355413969e-06
3.226416479e-06
3.239413505e-06
2.712375279e-06
2.711183914e-06
2.937616673e-06
2.931872086e-06
2.706220904e-06
2.761883192e-06
2.653657851e-06
2.640733192e-06
2.706236613e-06
2.393239238e-06
2.74450452e-06
2.988676723e-06
2.34211978e-06
2.408736711e-06
2.339454349e-06
2.403322301e-06
2.535953442e-06
2.306874632e-06
2.384457089e-06
2.735931137e-06
2.737979437e-06
2.432981822e-06
2.728979552e-06
2.750791546e-06
2.437226473e-06
2.245894149e-06
2.272083665e-06
2.25133112e-06
2.281558853e-06
2.437542208e-06
2.269279784e-06
2.243458801e-06
2.249678028e-06
2.305983813e-06
3.3337133e-06
3.297935184e-06
3.292280317e-06
3.262917261e-06
3.159462786e-06
3.20544489e-06
2.912874079e-06
2.934936171e-06
2.70902605e-06
2.758174901e-06
2.679476248e-06
2.673850492e-06
2.225258356e-06
2.238766174e-06
2.39218285e-06
2.376674852e-06
2.212309161e-06
2.277457761e-06
2.198988356e-06
2.20151132e-06
2.234594363e-06
2.282761704e-06
2.441774563e-06
2.25449053e-06
2.273563151e-06
2.248167178e-06
2.28393561e-06
2.753183825e-06
2.70085952e-06
2.708485373e-06
2.70247803e-06
2.635980619e-06
2.658610821e-06
2.380008519e-06
2.379545866e-06
2.211029404e-06
2.266215062e-06
2.22098505e-06
2.205227084e-06
2.272706568e-06
2.212847029e-06
2.228180813e-06
2.235502002e-06
2.195703125e-06
2.20363186e-06
0.001048668684
0.00107969839
0.001043240024
0.001075069651
0.001107129308
0.001037861468
0.001069987902
0.001102901078
0.001130677187
0.001032809858
0.001098028981
0.001064459291
0.001126788091
0.00115041144
0.001027543966
0.001122176914
0.001092346303
0.001057807843
0.001146869678
0.001166529059
0.001019332011
0.001116698849
0.001142616012
0.001085504087
0.001048960782
0.001163353753
0.001179289568
0.001004614261
0.001110192187
0.001137539398
0.001159515904
0.001077336634
0.001038837465
0.001176482211
0.001188970766
0.000995413471
0.001131525618
0.001102532632
0.001154925543
0.001173071415
0.001067865831
0.00102812425
0.001186514079
0.001195831651
0.0009888916059
0.001149494268
0.001124473885
0.001093620193
0.001168989097
0.001183497738
0.001056847037
0.001013675514
0.001193700355
0.00120007529
0.000950802615
0.001164171968
0.001143147323
0.001116328046
0.001083529977
0.001179878785
0.001191032011
0.001045332315
0.001007271721
0.001198248061
0.001207198416
0.001026436063
0.001175648116
0.001158567667
0.001135834207
0.001107064819
0.001072079963
0.001187728415
0.001195907338
0.001030001168
0.0009679500639
0.001206410237
0.001202453845
0.0003297657242
0.0003316120389
0.0003123139383
0.0003237516238
0.001183913049
0.001170782552
0.001152135361
0.001127552925
0.001096878742
0.001060585541
0.001192844209
0.001205599684
0.001021628545
0.001003176316
0.001202341808
0.001198669479
0.0003329237756
0.0003288286016
0.0003480459642
0.001179816655
0.001188698179
0.001165268281
0.001144835127
0.001118313787
0.001085861119
0.001048806725
0.001204356372
0.001202340835
0.001012753288
0.000996805238
0.001198446008
0.001192086585
0.0003226368768
0.000322601739
0.0003117059774
0.0003366958664
0.001175316455
0.001184820743
0.001202126562
0.001159000624
0.001136604645
0.001108045137
0.001073488414
0.001032420291
0.001203924002
0.001198126263
0.0009685503325
0.0003209390847
0.0003122433997
0.0003143707506
0.001191784834
0.001182492918
0.0001069998185
0.0001022772923
0.0001031417106
0.0001062128155
0.0003157873978
0.0001098583177