/*--------------------------------*- C++ -*----------------------------------*\
  =========                 |
  \\      /  F ield         | OpenFOAM: The Open Source CFD Toolbox
   \\    /   O peration     | Website:  https://openfoam.org
    \\  /    A nd           | Version:  8
     \\/     M anipulation  |
\*---------------------------------------------------------------------------*/






FoamFile
{
    version     2.0;
    format      ascii;
    class       volSymmTensorField;
    location    "0";
    object      TauDDES;
}
// * * * * * * * * * * * * * * * * * * * * * * * * * * * * * * * * * * * * * //

dimensions      [0 2 -2 0 0 0 0];


internalField   nonuniform List<symmTensor>
9882
(
( 3.445860273e-07 5.40310352e-10 -9.755854791e-09 2.775893404e-10 1.048855794e-11 3.3345259e-07 )
( 1.25249187e-06 3.407202076e-09 -3.406627869e-08 2.399685561e-09 1.755262741e-10 1.213041287e-06 )
( 3.473772097e-07 5.479859344e-10 -9.625570563e-09 2.762355622e-10 -5.785958952e-12 3.380349085e-07 )
( 3.139175305e-06 1.341549627e-08 -8.087132386e-08 1.403864225e-08 9.568145165e-10 3.046042821e-06 )
( 1.261417424e-06 3.449581287e-09 -3.393347114e-08 2.403330424e-09 7.578776495e-11 1.229125814e-06 )
( 3.494452869e-07 5.962844107e-10 -9.496972986e-09 2.821294032e-10 -3.974665042e-11 3.424642046e-07 )
( 5.801320185e-06 3.309067864e-08 -1.403738423e-07 5.321804508e-08 2.927401876e-09 5.653202606e-06 )
( 3.16089745e-06 1.373170555e-08 -8.140049346e-08 1.415352191e-08 5.816438997e-10 3.086753168e-06 )
( 1.269691438e-06 3.672033788e-09 -3.342153576e-08 2.456163495e-09 -5.19349598e-11 1.245395424e-06 )
( 3.514180378e-07 5.561566208e-10 -9.043970017e-09 2.868263682e-10 -6.039288514e-11 3.46966857e-07 )
( 8.862525647e-06 5.416903548e-08 -1.992584657e-07 1.504395613e-07 5.317255081e-09 8.706309927e-06 )
( 5.837383469e-06 3.358404399e-08 -1.424187417e-07 5.380595525e-08 1.898467827e-09 5.729544682e-06 )
( 3.180396106e-06 1.42159724e-08 -8.114053429e-08 1.442873643e-08 4.429845379e-11 3.126491038e-06 )
( 1.276730586e-06 3.498017875e-09 -3.229748913e-08 2.487673845e-09 -2.515633535e-10 1.261518605e-06 )
( 3.536919735e-07 5.442878925e-10 -8.530723683e-09 2.894244566e-10 -9.939617879e-11 3.518765084e-07 )
( 1.186176814e-05 5.471782316e-08 -2.451097316e-07 3.456216575e-07 7.885566866e-09 1.179104675e-05 )
( 8.916122169e-06 5.452917762e-08 -2.019828997e-07 1.521669191e-07 3.908128043e-09 8.822064046e-06 )
( 5.874101134e-06 3.453288855e-08 -1.426882079e-07 5.479151e-08 6.081214421e-10 5.802267879e-06 )
( 3.199451839e-06 1.390645199e-08 -7.908791133e-08 1.461895849e-08 -7.012067593e-10 3.167115892e-06 )
( 1.284446398e-06 3.413774818e-09 -3.061586895e-08 2.503345753e-09 -4.02254563e-10 1.279382445e-06 )
( 3.561274013e-07 4.987985025e-10 -7.905138766e-09 2.879622374e-10 -1.243121855e-10 3.569231239e-07 )
( 1.44374053e-05 7.993812723e-09 -2.690408678e-07 6.840379001e-07 1.043864994e-08 1.457977396e-05 )
( 1.19293336e-05 5.384342217e-08 -2.473765903e-07 3.497058572e-07 5.344837462e-09 1.195010373e-05 )
( 8.970680938e-06 5.551825666e-08 -2.033745545e-07 1.546239901e-07 1.282730033e-09 8.935858204e-06 )
( 5.909261745e-06 3.398986337e-08 -1.414270514e-07 5.545232185e-08 -1.292273177e-09 5.875835541e-06 )
( 3.218153779e-06 1.358014856e-08 -7.557132164e-08 1.47061634e-08 -1.190452847e-09 3.209920578e-06 )
( 1.293337391e-06 3.262176307e-09 -2.845795599e-08 2.502432483e-09 -4.885089555e-10 1.297563927e-06 )
( 3.587929882e-07 5.230592626e-10 -7.299233662e-09 2.903152718e-10 -1.065277033e-10 3.61767718e-07 )
( 1.64260764e-05 -1.041440143e-07 -2.703267512e-07 1.211602012e-06 1.126395599e-08 1.689555756e-05 )
( 1.451755452e-05 4.631197204e-09 -2.684428466e-07 6.916787925e-07 6.568463995e-09 1.477326896e-05 )
( 1.200278166e-05 5.481698295e-08 -2.47665497e-07 3.547380061e-07 1.562341589e-09 1.210222581e-05 )
( 9.025342479e-06 5.524460533e-08 -2.013419333e-07 1.563936962e-07 -2.09819917e-09 9.047691492e-06 )
( 5.943790711e-06 3.382248437e-08 -1.361689499e-07 5.589223306e-08 -2.804827925e-09 5.953200343e-06 )
( 3.23854124e-06 1.318501042e-08 -7.143738401e-08 1.47535113e-08 -1.549054773e-09 3.254004014e-06 )
( 1.302264195e-06 3.32133121e-09 -2.676891242e-08 2.530737175e-09 -4.891059779e-10 1.314741439e-06 )
( 3.61555891e-07 4.942149467e-10 -6.662139285e-09 2.92675606e-10 -8.592468403e-11 3.664937935e-07 )
( 1.783600237e-05 -2.923540023e-07 -2.443020151e-07 1.974090083e-06 1.09915943e-08 1.872035136e-05 )
( 1.651457387e-05 -1.122127884e-07 -2.643104722e-07 1.222948754e-06 6.035597799e-09 1.711550431e-05 )
( 1.460305248e-05 4.789739716e-09 -2.650803026e-07 7.001919471e-07 1.101593705e-09 1.496149252e-05 )
( 1.207392961e-05 5.460790931e-08 -2.441491631e-07 3.582046588e-07 -3.265899773e-09 1.225299093e-05 )
( 9.077587492e-06 5.553038207e-08 -1.958817109e-07 1.578142133e-07 -5.152943405e-09 9.163533832e-06 )
( 5.979361504e-06 3.294084294e-08 -1.299064678e-07 5.620427146e-08 -3.780150415e-09 6.030453733e-06 )
( 3.25972087e-06 1.313410714e-08 -6.690900989e-08 1.49256234e-08 -1.842797581e-09 3.297572903e-06 )
( 1.311756705e-06 3.177591079e-09 -2.452723358e-08 2.558769641e-09 -4.617888294e-10 1.331770591e-06 )
( 3.642848583e-07 5.190123886e-10 -6.147754306e-09 2.985328096e-10 -6.327081914e-11 3.710303815e-07 )
( 1.874036752e-05 -5.668779295e-07 -1.85926524e-07 3.01619616e-06 4.753148986e-09 2.009577656e-05 )
( 1.79280396e-05 -3.072291861e-07 -2.325687092e-07 1.994433433e-06 2.12355622e-09 1.895515743e-05 )
( 1.661018359e-05 -1.130407128e-07 -2.564399892e-07 1.236232492e-06 -9.100359355e-10 1.732892997e-05 )
( 1.46884322e-05 5.156843841e-09 -2.613427057e-07 7.067002912e-07 -5.431245675e-09 1.514402265e-05 )
( 1.214449185e-05 5.594134933e-08 -2.39284816e-07 3.621858582e-07 -8.444239086e-09 1.240559868e-05 )
( 9.130290891e-06 5.424008265e-08 -1.888533774e-07 1.590582741e-07 -7.438145211e-09 9.278568541e-06 )
( 6.016561656e-06 3.252743142e-08 -1.224077693e-07 5.684591997e-08 -4.428111655e-09 6.109496098e-06 )
( 3.282989383e-06 1.272313632e-08 -6.19800673e-08 1.509895142e-08 -1.684914208e-09 3.339658406e-06 )
( 1.322432922e-06 3.245778091e-09 -2.256897247e-08 2.604812144e-09 -3.007439298e-10 1.348255864e-06 )
( 3.675262406e-07 4.884364579e-10 -5.531651137e-09 3.017586181e-10 -3.985328734e-11 3.754015268e-07 )
( 1.923050331e-05 -9.004905905e-07 -9.836011827e-08 4.216348771e-06 -7.096787602e-09 2.099255289e-05 )
( 1.883600999e-05 -5.891241699e-07 -1.688098052e-07 3.038818704e-06 -5.980749673e-09 2.033153578e-05 )
( 1.803036321e-05 -3.103911297e-07 -2.137429505e-07 2.013837047e-06 -5.05209119e-09 1.918495218e-05 )
( 1.670302299e-05 -1.140302217e-07 -2.475065344e-07 1.246665079e-06 -8.314253286e-09 1.753588549e-05 )
( 1.477337264e-05 6.617591808e-09 -2.56236774e-07 7.15219528e-07 -1.265125515e-08 1.533017348e-05 )
( 1.221317143e-05 5.367393641e-08 -2.322741608e-07 3.65803885e-07 -1.26410038e-08 1.255810821e-05 )
( 9.185097952e-06 5.277338033e-08 -1.788516357e-07 1.609794253e-07 -9.369633069e-09 9.397247595e-06 )
( 6.057247901e-06 3.105958157e-08 -1.130232334e-07 5.749834386e-08 -4.703202716e-09 6.188417501e-06 )
( 3.30914736e-06 1.2571439e-08 -5.676702486e-08 1.53237778e-08 -1.356795787e-09 3.381306669e-06 )
( 1.333862883e-06 3.08934256e-09 -2.034709468e-08 2.634014562e-09 -2.561584556e-10 1.364423838e-06 )
( 3.707820326e-07 5.078824583e-10 -4.923549124e-09 3.091460699e-10 -7.07231565e-11 3.79925126e-07 )
( 1.933160092e-05 -9.216255989e-07 -8.344711944e-08 4.23728261e-06 -2.339127292e-08 2.122264959e-05 )
( 1.946846714e-05 -1.27169676e-06 4.690839717e-09 5.505012723e-06 -2.489798234e-08 2.148712156e-05 )
( 1.894846901e-05 -5.974405894e-07 -1.445524163e-07 3.076100711e-06 -1.894856005e-08 2.057402526e-05 )
( 1.812916526e-05 -3.158434083e-07 -1.980525184e-07 2.030142014e-06 -1.332811728e-08 1.94113145e-05 )
( 1.680055357e-05 -1.135650152e-07 -2.412992615e-07 1.262593855e-06 -1.717959641e-08 1.774669363e-05 )
( 1.485582015e-05 2.812872379e-09 -2.497270088e-07 7.232896451e-07 -1.826567519e-08 1.551278547e-05 )
( 1.228591555e-05 5.100779532e-08 -2.223028446e-07 3.702286335e-07 -1.606375122e-08 1.27126159e-05 )
( 9.244772627e-06 4.954445032e-08 -1.657412128e-07 1.626402337e-07 -9.667235013e-09 9.51504353e-06 )
( 6.104112799e-06 3.023140493e-08 -1.033371646e-07 5.826118965e-08 -4.020647815e-09 6.265340744e-06 )
( 3.338264833e-06 1.205562672e-08 -5.1351698e-08 1.550090012e-08 -1.12119003e-09 3.422419923e-06 )
( 1.346429372e-06 3.116781278e-09 -1.815630846e-08 2.681010081e-09 -2.721609327e-10 1.380823392e-06 )
( 3.745216191e-07 4.808405341e-10 -4.385017682e-09 3.132198667e-10 -6.766374266e-11 3.843094305e-07 )
( 1.945657641e-05 -9.387493378e-07 -5.938061776e-08 4.279685527e-06 -3.891396005e-08 2.146094084e-05 )
( 1.956255619e-05 -1.299990686e-06 2.148240164e-08 5.554637937e-06 -3.960780859e-08 2.167579078e-05 )
( 1.959021029e-05 -1.831888881e-06 1.203483322e-07 7.195435501e-06 -4.211558746e-08 2.177911665e-05 )
( 1.905142562e-05 -6.090916145e-07 -1.219593031e-07 3.090748123e-06 -2.640807573e-08 2.079951446e-05 )
( 1.823753882e-05 -3.16836207e-07 -1.880693361e-07 2.051169304e-06 -2.339959515e-08 1.962805982e-05 )
( 1.689362216e-05 -1.203684548e-07 -2.33488251e-07 1.277147703e-06 -2.487537643e-08 1.795181015e-05 )
( 1.494393473e-05 -1.619162582e-09 -2.398865604e-07 7.325340903e-07 -2.408316391e-08 1.569876622e-05 )
( 1.236178377e-05 4.527419861e-08 -2.063232216e-07 3.739452268e-07 -1.744468747e-08 1.286904535e-05 )
( 9.311141184e-06 4.699023748e-08 -1.509221761e-07 1.646845931e-07 -9.436915249e-09 9.6336571e-06 )
( 6.155260053e-06 2.876973326e-08 -9.319813898e-08 5.889914689e-08 -3.563385587e-09 6.342414963e-06 )
( 3.369068509e-06 1.201338762e-08 -4.616413207e-08 1.57305422e-08 -1.104812353e-09 3.464166639e-06 )
( 1.359468797e-06 3.026529471e-09 -1.624716894e-08 2.709264812e-09 -3.365177859e-10 1.39711608e-06 )
( 3.782125191e-07 5.083716226e-10 -3.928872339e-09 3.192294762e-10 -6.850923995e-11 3.884037483e-07 )
( 1.956248889e-05 -9.563584626e-07 -3.218619682e-08 4.302042726e-06 -4.779813167e-08 2.169154322e-05 )
( 1.971332131e-05 -1.323722472e-06 4.332786219e-08 5.589040484e-06 -6.357266358e-08 2.194642366e-05 )
( 1.971596248e-05 -1.869392463e-06 1.332704755e-07 7.258747246e-06 -6.423174881e-08 2.199035953e-05 )
( 1.982946378e-05 -2.358778147e-06 1.90639426e-07 8.618042557e-06 -5.075219889e-08 2.198673246e-05 )
( 1.917348345e-05 -6.172692792e-07 -1.006411097e-07 3.126393722e-06 -3.614145072e-08 2.103051156e-05 )
( 1.833852002e-05 -3.306793133e-07 -1.74697135e-07 2.073865971e-06 -3.22399778e-08 1.985001109e-05 )
( 1.699489803e-05 -1.279856292e-07 -2.218905877e-07 1.293958348e-06 -3.248828406e-08 1.816244185e-05 )
( 1.50344822e-05 -1.042339814e-08 -2.231666656e-07 7.397053423e-07 -2.675948352e-08 1.588483792e-05 )
( 1.244522446e-05 4.029552869e-08 -1.872419233e-07 3.783348745e-07 -1.74185093e-08 1.302658711e-05 )
( 9.384240002e-06 4.367966966e-08 -1.351811818e-07 1.663589728e-07 -8.722257583e-09 9.752302503e-06 )
( 6.210726497e-06 2.843347069e-08 -8.316482081e-08 5.965326011e-08 -3.368316071e-09 6.420139016e-06 )
( 3.401419235e-06 1.17912986e-08 -4.063384651e-08 1.587858556e-08 -1.223662838e-09 3.505474524e-06 )
( 1.372286533e-06 3.146894079e-09 -1.394516591e-08 2.745524696e-09 -3.390070447e-10 1.412425149e-06 )
( 3.820697714e-07 4.911095974e-10 -3.11986903e-09 3.225093526e-10 -9.755710823e-11 3.92465239e-07 )
( 1.969822188e-05 -9.774823866e-07 -4.964782363e-09 4.356584668e-06 -5.57610278e-08 2.192454485e-05 )
( 1.980706293e-05 -1.344325256e-06 5.854699481e-08 5.615414921e-06 -7.22015514e-08 2.213691187e-05 )
( 1.986780626e-05 -1.909168077e-06 1.387712416e-07 7.347525298e-06 -8.774236449e-08 2.224036143e-05 )
( 1.994198101e-05 -2.399715413e-06 1.89509052e-07 8.718368917e-06 -6.493246474e-08 2.216091525e-05 )
( 2.033941564e-05 -2.960100574e-06 2.326254958e-07 1.013923156e-05 -7.643308209e-08 2.222112744e-05 )
( 1.928287566e-05 -6.368418326e-07 -8.369158877e-08 3.148028782e-06 -4.449235647e-08 2.125180254e-05 )
( 1.84524979e-05 -3.421924077e-07 -1.618630421e-07 2.100804522e-06 -4.30317435e-08 2.007366129e-05 )
( 1.709696517e-05 -1.411457475e-07 -2.044013172e-07 1.306661943e-06 -3.764902701e-08 1.837232048e-05 )
( 1.513202733e-05 -1.855773846e-08 -2.013196365e-07 7.480626891e-07 -2.781885655e-08 1.607420018e-05 )
( 1.25352426e-05 3.379571112e-08 -1.655097037e-07 3.818999801e-07 -1.71213177e-08 1.318655904e-05 )
( 9.4637453e-06 4.25954596e-08 -1.18756212e-07 1.682546298e-07 -8.478945546e-09 9.871720977e-06 )
( 6.268505331e-06 2.807067467e-08 -7.250346101e-08 6.016440324e-08 -3.597209197e-09 6.49776166e-06 )
( 3.432797484e-06 1.225509205e-08 -3.49320679e-08 1.606325561e-08 -1.333595123e-09 3.545794016e-06 )
( 1.385710448e-06 3.18704374e-09 -1.138102323e-08 2.772554408e-09 -4.538830978e-10 1.427539473e-06 )
( 3.857884678e-07 5.457689856e-10 -2.453367953e-09 3.274047145e-10 -1.273542105e-10 3.965080566e-07 )
( 1.981225614e-05 -1.000973043e-06 2.028608748e-08 4.386249657e-06 -6.253841889e-08 2.215793029e-05 )
( 1.996861647e-05 -1.379303285e-06 9.943319412e-08 5.691340903e-06 -8.382029648e-08 2.241595212e-05 )
( 1.997701111e-05 -1.929276323e-06 1.568896693e-07 7.350603937e-06 -1.046011704e-07 2.244929055e-05 )
( 2.011510333e-05 -2.445612608e-06 1.876167488e-07 8.795528629e-06 -9.327262518e-08 2.245033465e-05 )
( 2.153419155e-05 -4.123706731e-06 2.439500406e-07 1.294929461e-05 -9.543521884e-08 2.243159906e-05 )
( 2.061075793e-05 -3.049648512e-06 2.055870709e-07 1.030034946e-05 -1.187532561e-07 2.268737808e-05 )
( 1.941064693e-05 -6.550214948e-07 -6.416436804e-08 3.190598136e-06 -5.686955618e-08 2.149024476e-05 )
( 1.856329254e-05 -3.624257943e-07 -1.423107108e-07 2.119949841e-06 -5.134758396e-08 2.030185533e-05 )
( 1.720944965e-05 -1.530341649e-07 -1.812539381e-07 1.321423156e-06 -4.079801386e-08 1.858438191e-05 )
( 1.523607443e-05 -2.972630853e-08 -1.759401869e-07 7.544410892e-07 -2.843656333e-08 1.626850462e-05 )
( 1.263469403e-05 3.096112877e-08 -1.430326222e-07 3.85682057e-07 -1.670908389e-08 1.334765693e-05 )
( 9.546347428e-06 4.182559366e-08 -1.020839306e-07 1.695427869e-07 -8.48280024e-09 9.990762919e-06 )
( 6.32406136e-06 2.902981677e-08 -6.178489542e-08 6.07957702e-08 -3.843798169e-09 6.573703104e-06 )
( 3.463677103e-06 1.248552461e-08 -2.893961337e-08 1.623161694e-08 -1.738823419e-09 3.585018931e-06 )
( 1.398413247e-06 3.388032965e-09 -9.309318649e-09 2.817907685e-09 -5.746000897e-10 1.443087285e-06 )
( 3.89120828e-07 5.528665858e-10 -1.77973869e-09 3.294184092e-10 -1.516500953e-10 4.009861527e-07 )
( 1.995251296e-05 -1.029199098e-06 4.15005772e-08 4.444958904e-06 -7.554607606e-08 2.240161848e-05 )
( 2.007589319e-05 -1.405720923e-06 1.267745517e-07 5.738760137e-06 -9.025232828e-08 2.261387453e-05 )
( 2.013703124e-05 -1.965596084e-06 1.899143456e-07 7.445438314e-06 -1.191391874e-07 2.270799087e-05 )
( 2.019834574e-05 -2.462690873e-06 1.884698264e-07 8.813426575e-06 -1.067996465e-07 2.262580529e-05 )
( 2.26159118e-05 -4.92866684e-06 1.773600502e-07 1.470813004e-05 -9.825998859e-08 2.266504816e-05 )
( 2.174381189e-05 -4.210919087e-06 1.938036007e-07 1.308588526e-05 -1.305706974e-07 2.280903209e-05 )
( 2.087792382e-05 -3.127142463e-06 2.000325594e-07 1.043039356e-05 -1.520108412e-07 2.315842721e-05 )
( 1.95274697e-05 -6.826811045e-07 -4.470289383e-08 3.212095635e-06 -6.828739885e-08 2.172706809e-05 )
( 1.868900108e-05 -3.783272859e-07 -1.187591963e-07 2.143785423e-06 -5.702098349e-08 2.052931995e-05 )
( 1.732483906e-05 -1.69817767e-07 -1.540224872e-07 1.331809472e-06 -4.348012439e-08 1.880209675e-05 )
( 1.535182673e-05 -3.611097554e-08 -1.476309421e-07 7.61270428e-07 -2.884285877e-08 1.64639514e-05 )
( 1.273930684e-05 2.881367323e-08 -1.192060708e-07 3.885064359e-07 -1.687660145e-08 1.35069813e-05 )
( 9.628657608e-06 4.295687006e-08 -8.533180562e-08 1.71254797e-07 -8.915764127e-09 1.010749929e-05 )
( 6.378388207e-06 2.956048917e-08 -5.002165793e-08 6.149881671e-08 -4.207604931e-09 6.647667306e-06 )
( 3.494220664e-06 1.299469687e-08 -2.276833833e-08 1.650364645e-08 -1.828638019e-09 3.623882549e-06 )
( 1.410311597e-06 3.429690976e-09 -6.772346239e-09 2.848610237e-09 -7.008024161e-10 1.458859401e-06 )
( 3.92195318e-07 5.992850105e-10 -1.202096089e-09 3.347782329e-10 -1.617289774e-10 4.054795113e-07 )
( 2.007237708e-05 -1.057509735e-06 6.087679338e-08 4.467809049e-06 -8.76521753e-08 2.264537397e-05 )
( 2.022669105e-05 -1.436227421e-06 1.406560557e-07 5.790837349e-06 -1.010965178e-07 2.290168231e-05 )
( 2.026031143e-05 -1.998674406e-06 2.088620619e-07 7.505951544e-06 -1.254870341e-07 2.292307363e-05 )
( 2.037253398e-05 -2.505960083e-06 2.111928836e-07 8.89394687e-06 -1.260257534e-07 2.291533929e-05 )
( 2.311929893e-05 -5.211593361e-06 4.3621462e-08 1.514765518e-05 -1.779577019e-07 2.355096512e-05 )
( 2.454391324e-05 -6.209978892e-06 3.984101227e-08 1.72706732e-05 -5.900078293e-08 2.291633791e-05 )
( 2.204990597e-05 -4.355626515e-06 1.259929121e-07 1.331929889e-05 -1.79417583e-07 2.335249519e-05 )
( 2.1164391e-05 -3.230578841e-06 2.020732097e-07 1.061184776e-05 -1.737906388e-07 2.363836211e-05 )
( 2.048496754e-05 -2.543095434e-06 2.218020683e-07 8.970169802e-06 -1.328090349e-07 2.309682168e-05 )
( 1.96680212e-05 -7.024569868e-07 -2.280950362e-08 3.250173449e-06 -7.713012451e-08 2.196951027e-05 )
( 1.881506068e-05 -4.010968269e-07 -9.26836492e-08 2.158788448e-06 -6.261759466e-08 2.076440614e-05 )
( 1.745597183e-05 -1.811779811e-07 -1.243233783e-07 1.342674295e-06 -4.568282463e-08 1.902507938e-05 )
( 1.547531429e-05 -4.102093598e-08 -1.193571109e-07 7.660786423e-07 -2.872403115e-08 1.666046774e-05 )
( 1.284643076e-05 2.963606249e-08 -9.697642156e-08 3.923232441e-07 -1.731066668e-08 1.366511606e-05 )
( 9.708131984e-06 4.34752252e-08 -6.743839265e-08 1.732417445e-07 -9.442842064e-09 1.022212018e-05 )
( 6.431285783e-06 3.043190944e-08 -3.790912473e-08 6.248785667e-08 -4.420753097e-09 6.720561032e-06 )
( 3.52292318e-06 1.315953924e-08 -1.624455059e-08 1.66894889e-08 -2.078000216e-09 3.664070391e-06 )
( 1.421433126e-06 3.62473207e-09 -4.12649559e-09 2.884055661e-09 -6.735485503e-10 1.475522481e-06 )
( 3.952183363e-07 5.781867762e-10 -3.987773445e-10 3.376439683e-10 -1.470602529e-10 4.099082105e-07 )
( 2.022393528e-05 -1.091508693e-06 8.073305224e-08 4.527912097e-06 -9.913711096e-08 2.290029079e-05 )
( 2.03351392e-05 -1.466491881e-06 1.702194368e-07 5.82429584e-06 -1.079127969e-07 2.310744094e-05 )
( 2.041274092e-05 -2.035654006e-06 2.25022049e-07 7.574995834e-06 -1.302287558e-07 2.319033229e-05 )
( 2.365416731e-05 -5.509214134e-06 2.116678033e-08 1.556769348e-05 -2.469411982e-07 2.44148614e-05 )
( 2.228296216e-05 -4.454780537e-06 1.110170089e-07 1.347934813e-05 -2.05380374e-07 2.373252028e-05 )
( 2.499593211e-05 -6.548797046e-06 -1.087582575e-07 1.779874219e-05 -1.327345274e-07 2.370591756e-05 )
( 2.639864397e-05 -7.358503353e-06 -1.071828279e-07 1.939246977e-05 -1.436924446e-08 2.34355357e-05 )
( 2.14427655e-05 -3.33659932e-06 2.266782531e-07 1.079005597e-05 -1.919646877e-07 2.411534842e-05 )
( 2.075433076e-05 -2.627703452e-06 2.39031209e-07 9.105682693e-06 -1.43230892e-07 2.359673999e-05 )
( 2.065561057e-05 -2.597178081e-06 2.189497224e-07 9.06150126e-06 -1.427063552e-07 2.340127685e-05 )
( 1.980045454e-05 -7.317765949e-07 -1.565838126e-09 3.266184194e-06 -8.370824389e-08 2.221660907e-05 )
( 1.8959101e-05 -4.175824415e-07 -6.43967013e-08 2.176023827e-06 -6.667248442e-08 2.100634993e-05 )
( 1.759452789e-05 -1.916135659e-07 -9.229898978e-08 1.350296998e-06 -4.591759506e-08 1.924904609e-05 )
( 1.560665805e-05 -4.225912065e-08 -9.007614921e-08 7.735876011e-07 -2.956497092e-08 1.685237294e-05 )
( 1.295368111e-05 2.829320955e-08 -7.226664422e-08 3.966350164e-07 -1.8295367e-08 1.381746097e-05 )
( 9.787187082e-06 4.455303682e-08 -4.824977395e-08 1.759512855e-07 -9.371374787e-09 1.033344961e-05 )
( 6.482440767e-06 3.066018195e-08 -2.526175358e-08 6.324066959e-08 -4.636130146e-09 6.792745353e-06 )
( 3.549994517e-06 1.370381675e-08 -9.26766397e-09 1.687805451e-08 -2.168506263e-09 3.704498795e-06 )
( 1.431853661e-06 3.592419251e-09 -1.513541847e-09 2.903385532e-09 -6.30387631e-10 1.491502985e-06 )
( 3.97794139e-07 6.141782083e-10 1.060391636e-10 3.407372995e-10 -1.115127712e-10 4.143659282e-07 )
( 2.035796388e-05 -1.120542947e-06 9.523569844e-08 4.545651336e-06 -1.062219681e-07 2.315195161e-05 )
( 2.050718467e-05 -1.51710924e-06 1.926848086e-07 5.915405382e-06 -1.249666468e-07 2.341879735e-05 )
( 2.052168747e-05 -2.064119144e-06 2.471217044e-07 7.597933291e-06 -1.372729201e-07 2.342884545e-05 )
( 2.261742702e-05 -4.613417786e-06 1.17278276e-07 1.371842154e-05 -2.399849564e-07 2.424767808e-05 )
( 2.285358642e-05 -4.726668976e-06 1.411525119e-07 1.387263546e-05 -2.640163643e-07 2.460177711e-05 )
( 2.417518772e-05 -5.802842679e-06 7.726406182e-08 1.597010123e-05 -2.915544428e-07 2.518005931e-05 )
( 2.547996701e-05 -6.906657745e-06 -1.618193721e-07 1.827862252e-05 -1.991915894e-07 2.451135515e-05 )
( 2.686092921e-05 -7.725757314e-06 -2.241617665e-07 1.997875006e-05 -8.144502317e-08 2.411504829e-05 )
( 2.783461969e-05 -8.238264854e-06 -2.411648836e-07 2.087926259e-05 2.295300128e-08 2.406007479e-05 )
( 2.173442226e-05 -3.450359145e-06 2.591770851e-07 1.095680273e-05 -2.140728412e-07 2.456829679e-05 )
( 2.092752402e-05 -2.691045893e-06 2.618625956e-07 9.223012057e-06 -1.580192759e-07 2.392009992e-05 )
( 2.102466169e-05 -2.728386335e-06 2.663652481e-07 9.277417121e-06 -1.602853388e-07 2.41015623e-05 )
( 1.995724961e-05 -7.526990657e-07 2.0579348e-08 3.296355544e-06 -8.923536399e-08 2.247208613e-05 )
( 1.910789615e-05 -4.356671468e-07 -3.454232456e-08 2.18675541e-06 -6.726050827e-08 2.125065294e-05 )
( 1.774551856e-05 -1.953498554e-07 -5.98332619e-08 1.36262247e-06 -4.536671128e-08 1.94715758e-05 )
( 1.573703958e-05 -4.585775315e-08 -5.942438719e-08 7.814275023e-07 -3.007515303e-08 1.703864473e-05 )
( 1.305896058e-05 2.931762566e-08 -4.734214798e-08 4.023913505e-07 -1.805981142e-08 1.396703283e-05 )
( 9.863473679e-06 4.457971059e-08 -2.969843926e-08 1.780713461e-07 -9.683031266e-09 1.044282635e-05 )
( 6.531709005e-06 3.163655293e-08 -1.294910934e-08 6.389919349e-08 -5.013531368e-09 6.865867363e-06 )
( 3.576047447e-06 1.373286818e-08 -2.662604359e-09 1.699771168e-08 -2.041314007e-09 3.744447213e-06 )
( 1.441748509e-06 3.706577489e-09 5.465902175e-10 2.934764876e-09 -4.943498944e-10 1.507382535e-06 )
( 4.00252361e-07 5.758867827e-10 5.437926776e-10 3.428916873e-10 -7.709431704e-11 4.187166951e-07 )
( 2.052094715e-05 -1.15057594e-06 1.109256473e-07 4.584851922e-06 -1.12151227e-07 2.341733853e-05 )
( 2.061767736e-05 -1.548339696e-06 1.970115306e-07 5.944185887e-06 -1.285589661e-07 2.362548548e-05 )
( 2.068481444e-05 -2.123998456e-06 2.706769067e-07 7.717904737e-06 -1.444608557e-07 2.371592564e-05 )
( 2.317656072e-05 -4.889462616e-06 1.863717074e-07 1.408937169e-05 -2.934582994e-07 2.506560122e-05 )
( 2.467353625e-05 -6.108295111e-06 2.180245957e-07 1.637968853e-05 -2.652328988e-07 2.592790042e-05 )
( 2.339540697e-05 -5.011789654e-06 2.461104884e-07 1.425158007e-05 -2.961425309e-07 2.539847992e-05 )
( 2.599791515e-05 -7.238524177e-06 -1.45611935e-07 1.873624205e-05 -2.431594623e-07 2.523556395e-05 )
( 2.734175177e-05 -8.155950127e-06 -2.581580816e-07 2.052446507e-05 -1.561904241e-07 2.482733726e-05 )
( 2.836975909e-05 -8.597522537e-06 -2.964261228e-07 2.147667146e-05 -4.898301498e-08 2.473075801e-05 )
( 2.953871262e-05 -9.352829693e-06 -2.432791462e-07 2.255650907e-05 4.732687842e-08 2.494392538e-05 )
( 2.131413203e-05 -2.827075377e-06 3.078758937e-07 9.420617062e-06 -1.917498338e-07 2.456890434e-05 )
( 2.120542194e-05 -2.799418326e-06 2.915793118e-07 9.388855688e-06 -1.821078399e-07 2.439523814e-05 )
( 2.20316233e-05 -3.573944241e-06 3.067575562e-07 1.111064921e-05 -2.316799907e-07 2.501021663e-05 )
( 2.080080412e-05 -2.175768714e-06 2.8223198e-07 7.785129128e-06 -1.607884172e-07 2.394929834e-05 )
( 2.010779826e-05 -7.800712183e-07 4.462356173e-08 3.307234238e-06 -8.882783931e-08 2.272778875e-05 )
( 1.927451012e-05 -4.439327768e-07 -2.4840765e-09 2.205952569e-06 -6.539367803e-08 2.149503416e-05 )
( 1.789488488e-05 -2.029227772e-07 -2.500247476e-08 1.375003421e-06 -4.495169037e-08 1.968501056e-05 )
( 1.586864892e-05 -4.637033868e-08 -2.962691958e-08 7.917874996e-07 -2.982102387e-08 1.722018351e-05 )
( 1.316086491e-05 2.860837611e-08 -2.313193193e-08 4.072129798e-07 -1.780966308e-08 1.411023732e-05 )
( 9.938177755e-06 4.594051362e-08 -1.158879837e-08 1.799919431e-07 -1.017722706e-08 1.05494546e-05 )
( 6.578535704e-06 3.191639308e-08 -8.441325972e-10 6.44024567e-08 -4.848106361e-09 6.936215414e-06 )
( 3.600043328e-06 1.407644223e-08 2.813854261e-09 1.717769571e-08 -1.575890973e-09 3.782568683e-06 )
( 1.450602213e-06 3.561662298e-09 2.022468859e-09 2.956218381e-09 -3.163854734e-10 1.522294838e-06 )
( 4.027612306e-07 5.979025608e-10 3.925544056e-10 3.466344434e-10 -4.346860372e-11 4.229373189e-07 )
( 2.066577872e-05 -1.180055392e-06 1.288930633e-07 4.598011401e-06 -1.131872409e-07 2.367352135e-05 )
( 2.079344267e-05 -1.596340098e-06 2.155681358e-07 6.016676707e-06 -1.437072399e-07 2.392479291e-05 )
( 2.369080539e-05 -5.185261216e-06 3.461950371e-07 1.448817329e-05 -2.746892278e-07 2.585129369e-05 )
( 2.522348223e-05 -6.430987014e-06 3.996609905e-07 1.682858783e-05 -1.762344368e-07 2.675125324e-05 )
( 2.654967284e-05 -7.592806014e-06 -4.778742735e-08 1.918623821e-05 -2.49116539e-07 2.591051816e-05 )
( 2.390992631e-05 -5.298802535e-06 4.2897085e-07 1.466292269e-05 -2.386953497e-07 2.619884435e-05 )
( 2.233093437e-05 -3.703761649e-06 3.770767307e-07 1.129403154e-05 -2.348592432e-07 2.543417395e-05 )
( 2.788780694e-05 -8.5747497e-06 -2.245696038e-07 2.105273234e-05 -2.093684373e-07 2.545961797e-05 )
( 2.891830445e-05 -9.102145668e-06 -2.909672503e-07 2.207588841e-05 -1.715191331e-07 2.538917033e-05 )
( 3.02415956e-05 -9.738358131e-06 -2.081692401e-07 2.314913945e-05 -3.915760871e-08 2.563867747e-05 )
( 3.172902871e-05 -1.073207295e-05 -1.017711959e-08 2.427915933e-05 -3.018652706e-08 2.618099825e-05 )
( 2.108741683e-05 -2.268201797e-06 3.109746274e-07 7.921357792e-06 -1.838515971e-07 2.442602636e-05 )
( 2.150301225e-05 -2.881610953e-06 3.290465997e-07 9.470178156e-06 -1.932278622e-07 2.485491495e-05 )
( 2.096587377e-05 -2.240897629e-06 2.938300838e-07 7.909713531e-06 -1.770492588e-07 2.420794044e-05 )
( 2.162541023e-05 -2.936246119e-06 3.460703795e-07 9.556367331e-06 -1.953086723e-07 2.502491407e-05 )
( 2.028494237e-05 -7.944001368e-07 7.304240057e-08 3.340245485e-06 -8.696530074e-08 2.298584513e-05 )
( 1.943687676e-05 -4.571456884e-07 3.265878945e-08 2.223335514e-06 -6.311361034e-08 2.173073153e-05 )
( 1.804839303e-05 -2.05385291e-07 8.634538418e-09 1.392141826e-06 -4.364743589e-08 1.989490738e-05 )
( 1.599563984e-05 -4.885017191e-08 -1.917119796e-10 8.007687597e-07 -2.938941002e-08 1.739527943e-05 )
( 1.326374058e-05 2.954413958e-08 1.010857176e-09 4.116689354e-07 -1.866456678e-08 1.424970287e-05 )
( 1.001156579e-05 4.58207623e-08 6.456736035e-09 1.813900212e-07 -1.035874853e-08 1.065327069e-05 )
( 6.624554317e-06 3.253427394e-08 9.479657948e-09 6.499845284e-08 -4.101053275e-09 7.004567578e-06 )
( 3.623373686e-06 1.375583203e-08 6.530904706e-09 1.729871002e-08 -1.039991981e-09 3.818647201e-06 )
( 1.459767532e-06 3.634857526e-09 1.962703777e-09 2.981098923e-09 -8.805352281e-11 1.537340154e-06 )
( 4.054772944e-07 5.54004842e-10 -7.897933696e-11 3.463823672e-10 -1.885637306e-11 4.268848102e-07 )
( 2.091803799e-05 -1.626531684e-06 2.305536952e-07 6.043369922e-06 -1.475791294e-07 2.413407674e-05 )
( 2.084374137e-05 -1.208616936e-06 1.548019242e-07 4.644484306e-06 -1.126194746e-07 2.393861359e-05 )
( 2.261875488e-05 -3.827015917e-06 4.660456909e-07 1.146358591e-05 -2.231720657e-07 2.587452764e-05 )
( 2.579444117e-05 -6.759079497e-06 5.684607913e-07 1.726227492e-05 -1.239606888e-07 2.764025703e-05 )
( 2.448901432e-05 -5.581278401e-06 6.019548096e-07 1.510178663e-05 -1.502434372e-07 2.704682629e-05 )
( 2.715520168e-05 -7.993677173e-06 1.45687963e-07 1.965939737e-05 -1.900751698e-07 2.670598042e-05 )
( 2.424293962e-05 -5.462671197e-06 5.37395465e-07 1.492394767e-05 -1.803976772e-07 2.669233254e-05 )
( 2.851714089e-05 -9.004716048e-06 -1.258468671e-07 2.155916627e-05 -2.435543252e-07 2.60451452e-05 )
( 2.292266072e-05 -3.938440386e-06 5.620344723e-07 1.164883633e-05 -1.958231053e-07 2.630913332e-05 )
( 2.194350964e-05 -3.058525181e-06 4.309639507e-07 9.746058822e-06 -2.010113604e-07 2.547722397e-05 )
( 2.183052857e-05 -3.031988626e-06 3.983801093e-07 9.72005455e-06 -1.996584871e-07 2.530922757e-05 )
( 2.949788723e-05 -9.62494596e-06 -2.224049922e-07 2.265294461e-05 -2.566725641e-07 2.599398431e-05 )
( 3.093916894e-05 -1.02997119e-05 -1.563484489e-07 2.376992052e-05 -2.025128936e-07 2.632567703e-05 )
( 3.260310041e-05 -1.122768754e-05 1.208031932e-07 2.486757512e-05 -1.08962837e-07 2.687517554e-05 )
( 3.434106475e-05 -1.225093001e-05 2.986220125e-07 2.590603435e-05 -1.740164208e-07 2.794002285e-05 )
( 2.124868115e-05 -2.292669706e-06 3.31730746e-07 7.927838851e-06 -1.837466215e-07 2.467781451e-05 )
( 2.139476783e-05 -2.351830517e-06 3.558337767e-07 8.016031643e-06 -1.808575973e-07 2.490529005e-05 )
( 2.045054134e-05 -8.154454463e-07 1.043541928e-07 3.35877985e-06 -8.347480929e-08 2.323695298e-05 )
( 1.961032103e-05 -4.629249872e-07 6.689461429e-08 2.249425279e-06 -6.149560505e-08 2.196332571e-05 )
( 1.819771023e-05 -2.118087821e-07 4.119232955e-08 1.406981937e-06 -4.284195398e-08 2.009565651e-05 )
( 1.612678716e-05 -4.931896314e-08 2.920021558e-08 8.09864332e-07 -3.012952376e-08 1.756258098e-05 )
( 1.336467994e-05 2.835103885e-08 2.548092048e-08 4.149292181e-07 -1.89854763e-08 1.438274649e-05 )
( 1.008354866e-05 4.677603016e-08 2.328603799e-08 1.828870921e-07 -8.874084578e-09 1.075373166e-05 )
( 6.668699825e-06 3.205226307e-08 1.722092868e-08 6.537988639e-08 -2.627116302e-09 7.069510502e-06 )
( 3.646562163e-06 1.381071879e-08 7.033038152e-09 1.742263933e-08 -3.698326922e-10 3.85489011e-06 )