/*--------------------------------*- C++ -*----------------------------------*\
  =========                 |
  \\      /  F ield         | OpenFOAM: The Open Source CFD Toolbox
   \\    /   O peration     | Website:  https://openfoam.org
    \\  /    A nd           | Version:  8
     \\/     M anipulation  |
\*---------------------------------------------------------------------------*/






FoamFile
{
    version     2.0;
    format      ascii;
    class       volScalarField;
    location    "0";
    object      V;
}
// * * * * * * * * * * * * * * * * * * * * * * * * * * * * * * * * * * * * * //

dimensions      [0 3 0 0 0 0 0];


internalField   nonuniform List<scalar> 
9882
(
3.086644501e-06
3.743806308e-06
3.086909126e-06
4.540884044e-06
3.744113422e-06
3.086939876e-06
5.507668865e-06
4.541236436e-06
3.744148386e-06
3.086736126e-06
6.680294905e-06
5.508066536e-06
4.54127546e-06
3.743910167e-06
3.086887001e-06
8.102591465e-06
6.680734407e-06
5.508109539e-06
4.541000274e-06
3.744084295e-06
3.087040001e-06
9.827722407e-06
8.103062075e-06
6.680779977e-06
5.507795794e-06
4.541198878e-06
3.744260873e-06
3.087003501e-06
1.192017351e-05
9.828200747e-06
8.10310835e-06
6.680429937e-06
5.508018953e-06
4.541399933e-06
3.744216246e-06
3.086612751e-06
1.445816476e-05
1.192061836e-05
9.828245183e-06
8.102729317e-06
6.680674494e-06
5.508244003e-06
4.541345741e-06
3.743759311e-06
3.086385001e-06
1.753657734e-05
1.445850622e-05
1.192065517e-05
9.82785262e-06
8.102988038e-06
6.680921122e-06
5.508179085e-06
4.540817114e-06
3.743492587e-06
3.087218001e-06
1.776954236e-05
1.753670223e-05
1.445852722e-05
1.192027883e-05
9.828112513e-06
8.103249337e-06
6.680843653e-06
5.507575197e-06
4.540507903e-06
3.744460371e-06
3.087313501e-06
1.776956927e-05
1.956972364e-05
1.753669403e-05
1.445821818e-05
1.19205156e-05
9.82837319e-06
8.103157227e-06
6.680166965e-06
5.507222625e-06
4.541619625e-06
3.744569486e-06
3.086709251e-06
1.776959666e-05
1.956975977e-05
2.223719819e-05
1.753653704e-05
1.445839033e-05
1.192075053e-05
9.8282657e-06
8.102420201e-06
6.679773082e-06
5.508480096e-06
4.541743271e-06
3.743864318e-06
3.086876501e-06
1.776961053e-05
1.956980149e-05
2.223724062e-05
2.520537323e-05
1.75365786e-05
1.445855797e-05
1.192062773e-05
9.827496e-06
8.101992253e-06
6.681165249e-06
5.508617959e-06
4.540928958e-06
3.744056439e-06
3.087085251e-06
1.77696232e-05
1.956983869e-05
2.223728221e-05
2.520540138e-05
7.417935827e-05
1.753661057e-05
1.445842111e-05
1.191987717e-05
9.827051258e-06
8.103486976e-06
6.68131505e-06
5.507691357e-06
4.541146567e-06
3.744296982e-06
3.087047501e-06
1.776962519e-05
1.956986716e-05
2.223732405e-05
2.520545598e-05
8.065925594e-05
7.417949365e-05
1.753646351e-05
1.445778134e-05
1.191944913e-05
9.828579778e-06
8.103643974e-06
6.680282596e-06
5.507933474e-06
4.541420589e-06
3.744250475e-06
3.086760376e-06
1.776956652e-05
1.956988109e-05
2.223735325e-05
2.520547433e-05
0.0002249285828
8.065930845e-05
7.417958571e-05
1.753608744e-05
1.445742829e-05
1.192088567e-05
9.828736257e-06
8.102526845e-06
6.680544672e-06
5.508240095e-06
4.541363676e-06
3.743914014e-06
3.086756501e-06
1.776948345e-05
1.956987813e-05
2.223737954e-05
2.520552359e-05
0.0002249282378
0.0002370871993
8.06593742e-05
7.417964869e-05
2.520552637e-05
1.753590546e-05
1.445855903e-05
1.192102704e-05
9.827580217e-06
8.10279916e-06
6.680879649e-06
5.508171347e-06
4.540973562e-06
3.743907071e-06
3.086970251e-06
1.776948157e-05
1.95698753e-05
2.223739179e-05
0.0002249274043
8.065932156e-05
0.0002370865192
0.0002482842042
7.41796599e-05
2.520555563e-05
2.520557151e-05
1.753637955e-05
1.445865948e-05
1.191991975e-05
9.827846112e-06
8.103152818e-06
6.680797953e-06
5.507724894e-06
4.540962055e-06
3.744153537e-06
3.086898001e-06
1.776952918e-05
1.956988294e-05
2.223740846e-05
8.065935833e-05
8.065914539e-05
0.0002249257318
0.0002370851964
0.0002482832264
0.0002583582425
7.417965401e-05
2.520560501e-05
2.520557661e-05
1.753639962e-05
1.445775372e-05
1.192014773e-05
9.828198099e-06
8.103056759e-06
6.680295884e-06
5.507707636e-06
4.541243088e-06
3.744067392e-06
3.086838001e-06
1.776953928e-05
1.956990148e-05
2.223741849e-05
8.065916147e-05
0.000224922547
8.065870729e-05
0.0002370826991
0.00024828142
0.0002583570272
0.000267226948
2.520557862e-05
2.520562932e-05
7.417957621e-05
2.223743691e-05
1.753594571e-05
1.445789159e-05
1.192046439e-05
9.828086466e-06
8.102507123e-06
6.680271493e-06
5.508022541e-06
4.541141507e-06
3.743995679e-06
3.086971751e-06
1.776947646e-05
1.956990984e-05
8.065865177e-05
0.0002249166834
0.0002370781566
8.065778389e-05
7.417947186e-05
0.0002482781388
0.0002583548004
0.0002672255621
0.0002748856483
2.223744425e-05
2.520563081e-05
2.223744347e-05
2.520554893e-05
1.753591282e-05
1.445811499e-05
1.192033732e-05
9.827509648e-06
8.102473018e-06
6.68061602e-06
5.507904198e-06
4.541056182e-06
3.744148994e-06
3.086949751e-06
1.956989427e-05
1.776939973e-05
7.417923556e-05
0.0002249063399
8.065596104e-05
0.000237070208
8.065754862e-05
0.0002482723679
7.417895933e-05
2.520548664e-05
2.520559901e-05
0.0002583508397
0.0002672230069
0.0002748841642
0.0002813970865
2.223742726e-05
2.223740692e-05
1.753594843e-05
1.445797683e-05
1.191977083e-05
9.827461998e-06
8.10283696e-06
6.680480268e-06
5.507804273e-06
4.541230045e-06
3.74412168e-06
3.086953501e-06
1.9569865e-05
1.776935145e-05
2.520554488e-05
2.520539356e-05
8.065533666e-05
0.0002248891279
0.0002370568252
8.065256321e-05
7.417781585e-05
0.0002482625219
7.417844066e-05
0.0002583439935
2.520526201e-05
2.520546396e-05
2.223733235e-05
2.223736569e-05
0.0002672185093
0.0002748814076
0.0002813956019
1.956982082e-05
1.753580659e-05
1.445748629e-05
1.191970589e-05
9.827825676e-06
8.102685375e-06
6.680365292e-06
5.507998028e-06
4.541196151e-06
3.744123453e-06
3.086730251e-06
1.776926355e-05
2.223727598e-05
2.223723337e-05
7.417677493e-05
0.0002248618465
8.0646761e-05
0.000237035042
8.065130012e-05
0.0002482462208
7.417552159e-05
2.520482325e-05
2.520516628e-05
0.0002583324587
2.520534316e-05
2.520507587e-05
0.0002672107795
2.223710902e-05
2.22371643e-05
1.956970242e-05
1.956976712e-05
0.000274876536
0.0002813927849
1.753550332e-05
1.445740005e-05
1.192003435e-05
9.827662822e-06
8.102556091e-06
6.680576019e-06
5.507955995e-06
4.541195118e-06
3.743861509e-06
3.086629001e-06
1.776915103e-05
1.956963432e-05
1.956956684e-05
2.520493422e-05
2.520449582e-05
8.06446584e-05
0.0002248197742
0.000237000441
8.063771272e-05
7.417138466e-05
0.0002482198305
7.417359704e-05
0.0002583134844
2.520405391e-05
2.52046153e-05
2.223671289e-05
2.223680932e-05
0.0002671978429
2.223701349e-05
2.223693459e-05
0.0002748681819
1.956941733e-05
1.956949763e-05
0.0002813877599
1.753538892e-05
1.445763313e-05
1.19198686e-05
9.82752154e-06
8.102776314e-06
6.680524721e-06
5.507951109e-06
4.540890882e-06
3.743741885e-06
3.087049126e-06
1.776905511e-05
1.776898301e-05
2.223656422e-05
2.223645341e-05
7.416828577e-05
0.0002247553593
8.062420812e-05
0.0002369463433
8.063454341e-05
0.0002481778552
7.416495665e-05
2.520273271e-05
2.520363632e-05
0.0002582828416
2.520419563e-05
2.520347745e-05
0.0002671766163
2.22361342e-05
2.223627305e-05
1.956896501e-05
1.956909309e-05
0.0002748542175
1.956932584e-05
1.956921534e-05
0.0002813791002
1.776882366e-05
1.776890934e-05
1.753543136e-05
1.445747997e-05
1.191972185e-05
9.82773821e-06
8.10271536e-06
6.680513829e-06
5.507602242e-06
4.540750937e-06
3.744229318e-06
3.087136126e-06
1.956884266e-05
1.95687204e-05
2.520295949e-05
2.520184424e-05
8.061933254e-05
0.0002246568856
0.0002368626767
8.06038266e-05
7.415568177e-05
0.0002481120404
7.416046467e-05
0.0002582341405
2.520077543e-05
2.520215113e-05
2.223523582e-05
2.223544717e-05
0.0002671424181
2.223590755e-05
2.223573067e-05
0.0002748313378
1.956844876e-05
1.956859281e-05
1.776832953e-05
1.776847797e-05
0.0002813645743
1.776873103e-05
1.776862273e-05
1.753521133e-05
1.753532e-05
1.445734237e-05
1.191991235e-05
9.827666992e-06
8.102694847e-06
6.680120784e-06
5.507441192e-06
4.541309962e-06
3.744329052e-06
3.086691001e-06
1.776822435e-05
1.776815021e-05
2.223490151e-05
2.223466297e-05
7.414907415e-05
0.0002367344639
8.05726154e-05
8.05959401e-05
0.0002480101217
7.414181196e-05
2.519802633e-05
2.520013159e-05
0.0002581578567
2.520123182e-05
2.519954004e-05
0.0002670881921
2.223400166e-05
2.223426897e-05
1.956775436e-05
1.95679497e-05
0.000274794555
1.956829745e-05
1.956812777e-05
0.0002813407904
1.77679266e-05
1.776805065e-05
1.753475857e-05
1.753500256e-05
1.753521146e-05
1.753511957e-05
1.445746702e-05
1.191983073e-05
9.827633223e-06
8.102264804e-06
6.679939253e-06
5.508071947e-06
4.541422807e-06
3.743809484e-06
3.086861126e-06
1.753463915e-05
1.753485235e-05
1.956756361e-05
1.956735307e-05
2.519882884e-05
2.519619862e-05
0.0002478541296
7.413162271e-05
0.0002580399775
2.51938655e-05
2.519717586e-05
2.223231602e-05
2.223268319e-05
0.0002670034874
2.223354392e-05
2.223324025e-05
0.0002747364096
1.956689053e-05
1.956713656e-05
1.776738593e-05
1.776755256e-05
0.0002813025944
1.776780663e-05
1.77676981e-05
1.753451902e-05
1.753484986e-05
1.445691051e-05
1.445729917e-05
1.445737847e-05
1.191977901e-05
9.827180979e-06
8.102064299e-06
6.680635855e-06
5.50819763e-06
4.540823158e-06
3.74400627e-06
3.087137126e-06
1.445672541e-05
1.445727643e-05
1.776725865e-05
1.77671523e-05
2.223162948e-05
2.223117105e-05
0.0002578602412
2.519513063e-05
2.519097398e-05
0.0002668731115
2.22297151e-05
2.223029734e-05
1.956570608e-05
1.956607125e-05
0.000274645922
1.956664954e-05
1.956636847e-05
0.0002812423928
1.776679266e-05
1.776698187e-05
1.753417113e-05
1.753441889e-05
1.753454228e-05
1.753463813e-05
1.445669145e-05
1.445735528e-05
1.191933197e-05
9.826968024e-06
8.102810455e-06
6.680772281e-06
5.507515823e-06
4.541047672e-06
3.744325865e-06
3.086932376e-06
1.191912146e-05
1.191983108e-05
1.753407065e-05
1.753419081e-05
1.956532401e-05
1.956486472e-05
0.0002666753896
2.222861295e-05
2.22278737e-05
0.0002745073236
1.956377875e-05
1.956437546e-05
1.776596974e-05
1.77662738e-05
0.0002811490896
1.776662683e-05
1.77664859e-05
1.753357756e-05
1.75341509e-05
1.445649385e-05
1.445685736e-05
1.44568728e-05
1.44572053e-05
1.191914033e-05
1.191995312e-05
9.827728181e-06
8.102952575e-06
6.680012688e-06
5.507767388e-06
4.541413603e-06
3.744086257e-06
3.086732751e-06
1.44563971e-05
1.445679303e-05
1.776567494e-05
1.776536624e-05
0.0002742984232
1.956314959e-05
1.956239945e-05
0.0002810069047
1.776451278e-05
1.776497667e-05
1.753317232e-05
1.753355862e-05
1.753359467e-05
1.753381289e-05
1.44558075e-05
1.445692939e-05
1.191904038e-05
1.191944772e-05
1.191940039e-05
1.191984829e-05
9.827018259e-06
9.827867867e-06
8.102131019e-06
6.680287766e-06
5.508179776e-06
4.54113615e-06
3.743852324e-06
3.086704751e-06
1.191895159e-05
1.191948078e-05
1.753281206e-05
1.753287277e-05
0.0002807939139
1.776398192e-05
1.776344284e-05
1.753183699e-05
1.753260204e-05
1.445588635e-05
1.445637221e-05
1.445605446e-05
1.445672285e-05
1.191834396e-05
1.191970814e-05
9.826980209e-06
9.827388081e-06
9.827307897e-06
9.827796574e-06
8.102421347e-06
6.680742223e-06
5.507862563e-06
4.540864369e-06
3.74381832e-06
3.087027501e-06
9.826901934e-06
9.827475564e-06
1.445540709e-05
1.445595904e-05
1.753157396e-05
1.753110099e-05
1.445466323e-05
1.445584238e-05
1.191869587e-05
1.191920885e-05
1.191870674e-05
1.191959153e-05
9.826319497e-06
9.827742271e-06
8.102131282e-06
8.1025158e-06
8.102905614e-06
6.680385782e-06
5.507551214e-06
4.540823259e-06
3.744192481e-06
3.087194751e-06
8.102063227e-06
8.102630368e-06
1.191818041e-05
1.191897932e-05
1.44548008e-05
1.445440942e-05
1.191761759e-05
1.191895845e-05
9.826811151e-06
9.827308061e-06
9.826728346e-06
9.827686009e-06
8.101528969e-06
8.10290477e-06
6.680035748e-06
5.507501962e-06
4.541252233e-06
3.744384854e-06
3.086449251e-06
6.679977281e-06
6.680510094e-06
9.826306466e-06
9.827200479e-06
1.191797498e-05
1.191765548e-05
9.825884055e-06
9.827238194e-06
8.102077204e-06
8.102535087e-06
8.101942096e-06
8.102887989e-06
6.679501981e-06
6.68077316e-06
5.507985662e-06
4.541470273e-06
3.74351521e-06
3.086694376e-06
8.101607849e-06
8.102507481e-06
9.826348436e-06
9.826089996e-06
8.101294873e-06
8.102577965e-06
6.680054449e-06
6.680464125e-06
6.679894472e-06
6.680781836e-06
5.507087605e-06
5.508228227e-06
4.540466974e-06
3.743797847e-06
3.087233501e-06
6.679633315e-06
6.680487694e-06
8.101795358e-06
8.101588384e-06
6.679404646e-06
6.680573401e-06
5.507614575e-06
5.507973066e-06
5.507446843e-06
5.508252606e-06
4.540788491e-06
3.744422116e-06
3.087059501e-06
5.507245432e-06
5.508027328e-06
6.67989912e-06
6.67973484e-06
5.507081114e-06
5.508118969e-06
4.540953015e-06
4.541261985e-06
4.541503287e-06
3.744216362e-06
3.086837751e-06
4.540634819e-06
4.541333064e-06
5.507546232e-06
5.507417168e-06
4.540519491e-06
4.541424255e-06
3.7439533e-06
3.086608876e-06
3.743682266e-06
3.744295467e-06
4.540943155e-06
4.540842912e-06
3.743603796e-06
3.744382182e-06
3.087140751e-06
3.743981984e-06
3.743904273e-06
3.086558126e-06
3.087221001e-06
3.086890376e-06
3.086830751e-06
3.086894126e-06
3.086369001e-06
3.743968233e-06
3.743347259e-06
3.086804751e-06
4.540903366e-06
4.540175968e-06
3.743843406e-06
3.086809501e-06
5.507468385e-06
5.506626309e-06
4.540732227e-06
3.743837619e-06
3.086918376e-06
6.679766635e-06
6.678807825e-06
5.507236429e-06
4.540710465e-06
3.743951294e-06
3.086879501e-06
8.101585243e-06
8.10051782e-06
6.679456264e-06
5.507191707e-06
4.540824581e-06
3.743891687e-06
3.087043376e-06
9.826029628e-06
9.824879078e-06
8.101174558e-06
6.67937899e-06
5.507298175e-06
4.540736628e-06
3.744066377e-06
3.087130751e-06
1.191750451e-05
1.191632673e-05
9.825489633e-06
8.101050599e-06
6.679464533e-06
5.507172953e-06
4.540916554e-06
3.744149821e-06
3.087129126e-06
1.445411738e-05
1.445301673e-05
1.191679919e-05
9.825301015e-06
8.101095552e-06
6.679289888e-06
5.507347304e-06
4.54098841e-06
3.744127427e-06
3.086814501e-06
1.753059335e-05
1.752974973e-05
1.44532026e-05
1.191652111e-05
9.825275085e-06
8.100855148e-06
6.679442448e-06
5.507396187e-06
4.540934824e-06
3.743738329e-06
3.086683751e-06
1.776279688e-05
1.7762132e-05
1.752941404e-05
1.445279969e-05
1.191637762e-05
9.824948029e-06
8.100960234e-06
6.679449914e-06
5.507297139e-06
4.540456196e-06
3.743560862e-06
3.086767001e-06
1.956162108e-05
1.776141609e-05
1.956070863e-05
1.752883792e-05
1.445247043e-05
1.191593744e-05
9.824963386e-06
8.100898883e-06
6.67928605e-06
5.506711622e-06
4.540217867e-06
3.743629925e-06
3.086684376e-06
2.222648351e-05
1.776068202e-05
1.955977434e-05
2.22255706e-05
1.752822264e-05
1.445188203e-05
1.191579984e-05
9.824795239e-06
8.1006425e-06
6.678574674e-06
5.50639434e-06
4.54025999e-06
3.743503996e-06
3.086448126e-06
2.519249584e-05
1.775983379e-05
1.955867559e-05
2.22238583e-05
2.518729476e-05
1.75274386e-05
1.445149701e-05
1.191546727e-05
9.824407215e-06
8.099786773e-06
6.678155352e-06
5.506390689e-06
4.540074783e-06
3.743196761e-06
3.086621376e-06
7.412022391e-05
1.775888882e-05
1.955753507e-05
2.222273662e-05
2.518925988e-05
1.752666374e-05
1.445091421e-05
1.19148945e-05
9.823389045e-06
8.099235051e-06
6.678077522e-06
5.506124892e-06
4.539677786e-06
3.74336422e-06
3.087778751e-06
7.410447555e-05
1.775780506e-05
1.955616759e-05
2.222060635e-05
2.518279057e-05
1.752570804e-05
1.445008275e-05
1.191369797e-05
9.822666349e-06
8.099042088e-06
6.677703056e-06
5.505614954e-06
4.539824549e-06
3.744672364e-06
3.088245251e-06
8.055969267e-05
7.408682148e-05
1.775656866e-05
1.955472796e-05
2.221921682e-05
2.518517001e-05
1.752451246e-05
1.444870146e-05
1.1912757e-05
9.822298876e-06
8.098520468e-06
6.677051447e-06
5.505717711e-06
4.541277752e-06
3.745169648e-06
3.086279001e-06
0.0002245069537
8.052503967e-05
7.406289346e-05
2.51771376e-05
1.77551124e-05
1.955298599e-05
2.221657627e-05
1.752295818e-05
1.444747971e-05
1.19121268e-05
9.82157888e-06
8.097692929e-06
6.677075102e-06
5.507292393e-06
4.541787321e-06
3.742830256e-06
3.086261876e-06
0.0002242798613
0.0002365396476
8.050393967e-05
7.403580647e-05
2.518017276e-05
2.517023542e-05
1.775346387e-05
1.955114424e-05
2.221482918e-05
1.752137377e-05
1.444646116e-05
1.191114085e-05
9.820533233e-06
8.097584401e-06
6.678719028e-06
5.507782471e-06
4.53902487e-06
3.742750682e-06
3.086559126e-06
0.0002362459588
8.045310336e-05
0.0002239367756
0.0002476180733
7.399948927e-05
2.516159064e-05
2.517387043e-05
1.775162743e-05
1.954893827e-05
2.221151946e-05
1.751978611e-05
1.444511638e-05
1.190982558e-05
9.820214092e-06
8.099199655e-06
6.679136342e-06
5.504551385e-06
4.538850981e-06
3.743031348e-06
3.086649251e-06
0.000247264917
0.0002358065928
8.041833056e-05
8.034413006e-05
0.0002234182708
0.0002575899073
2.516612972e-05
2.515099886e-05
7.395743857e-05
2.220933157e-05
1.774964046e-05
1.954663545e-05
1.751795738e-05
1.444347171e-05
1.190918073e-05
9.821631308e-06
8.099458912e-06
6.675404424e-06
5.504237506e-06
4.539083523e-06
3.743062219e-06
3.086501001e-06
0.0002571890517
0.0002467428415
0.0002351541256
8.028572756e-05
0.000222632699
8.01775259e-05
0.0002663801273
2.220523725e-05
2.220251661e-05
2.51563447e-05
2.513770007e-05
7.39014582e-05
1.954391963e-05
1.774744446e-05
1.751591189e-05
1.444233074e-05
1.191012092e-05
9.821598241e-06
8.095221331e-06
6.67488535e-06
5.504373137e-06
4.539016842e-06
3.742804877e-06
3.086618001e-06
0.0002566036642
0.0002659463328
0.0002459810179
0.0002341926999
8.007772125e-05
0.0002214379236
7.991973093e-05
7.383464968e-05
0.0002739887738
2.219743166e-05
2.219402765e-05
2.514412866e-05
2.512114038e-05
1.954109937e-05
1.774508192e-05
1.751402546e-05
1.444234889e-05
1.190958896e-05
9.816901791e-06
8.094404579e-06
6.674849595e-06
5.504152852e-06
4.538603535e-06
3.742842609e-06
3.087178376e-06
0.0002557632116
0.0002653201752
0.0002735378927
0.0002448860159
0.0002327907495
7.374664935e-05
7.951315398e-05
7.974643451e-05
0.0002196172868
7.363825432e-05
2.510003649e-05
2.512837938e-05
0.0002804804462
2.218769787e-05
1.953777653e-05
2.218331045e-05
1.774252453e-05
1.751242475e-05
1.444100427e-05
1.190456578e-05
9.815653974e-06
8.094083274e-06
6.674393335e-06
5.503517268e-06
4.538510298e-06
3.743379253e-06
3.086953876e-06
0.0002545798708
0.0002644337821
0.0002728938054
0.0002800276726
0.000243342085
0.000230782912
2.510824383e-05
2.507334612e-05
7.331491709e-05
7.920711511e-05
7.349663714e-05
0.0002168706138
7.885400529e-05
2.503911586e-05
2.508206206e-05
2.216947982e-05
2.217525021e-05
1.953428606e-05
1.953006753e-05
1.773964821e-05
1.750979317e-05
1.443592565e-05
1.190269753e-05
9.814877536e-06
8.093272772e-06
6.673443954e-06
5.503218027e-06
4.538967366e-06
3.742982319e-06
3.086734126e-06
0.0002632059709
0.0002529518038
0.00027199264
0.0002793865492
0.0002412217374
0.0002280094147
2.21592246e-05
2.215164789e-05
2.493685713e-05
2.500244268e-05
7.307728637e-05
2.504790779e-05
2.499490283e-05
0.0002129522668
7.775971354e-05
7.830796013e-05
7.27583769e-05
2.212846211e-05
2.213853659e-05
1.951994764e-05
1.952550237e-05
1.773610758e-05
1.750515662e-05
1.443316619e-05
1.190121303e-05
9.81354054e-06
8.091881203e-06
6.672827718e-06
5.503506633e-06
4.53832139e-06
3.742565588e-06
3.086921876e-06
0.0002615461312
0.0002707599636
0.0002507716028
0.0002784977931
0.0002384076594
0.0002244052266
1.95139678e-05
1.950680471e-05
2.20563898e-05
2.494096592e-05
2.207548406e-05
2.485932155e-05
2.211151492e-05
2.209780409e-05
7.679081628e-05
0.0002079625279
7.595415125e-05
7.175318213e-05
7.233865598e-05
2.475443347e-05
2.485661844e-05
1.94897053e-05
1.949905095e-05
1.773194134e-05
1.750111697e-05
1.443059985e-05
1.189909949e-05
9.811526636e-06
8.090786969e-06
6.672811982e-06
5.502504473e-06
4.537616567e-06
3.74259216e-06
3.086238251e-06
0.0002593620827
0.0002691148486
0.0002772933309
0.0002479382931
0.0002348279397
0.0002205857666
1.772715189e-05
1.772190738e-05
1.943534651e-05
2.202649947e-05
1.945266044e-05
2.199944681e-05
1.947937965e-05
1.946681496e-05
7.098296526e-05
0.0002118973357
7.345504984e-05
7.436499858e-05
6.989833308e-05
2.440634635e-05
2.457131263e-05
2.473836419e-05
2.460905801e-05
2.191967801e-05
2.195875964e-05
1.770900322e-05
1.771589836e-05
1.749691747e-05
1.442734807e-05
1.189621127e-05
9.809721277e-06
8.090259486e-06
6.671301614e-06
5.501382687e-06
4.537378103e-06
3.741569009e-06
3.086582376e-06
0.0002565715699
0.0002669777321
0.000275699933
0.0002443248312
0.0002297680076
0.0002097068301
1.766688962e-05
1.941555236e-05
1.768025967e-05
1.939129948e-05
1.770094722e-05
1.769151589e-05
2.43310369e-05
2.411793208e-05
6.947426693e-05
6.687306957e-05
6.644454871e-05
6.851562374e-05
2.37100578e-05
2.398744148e-05
2.164082624e-05
2.172593437e-05
2.186310769e-05
2.180579135e-05
1.932851545e-05
1.936314558e-05
1.748615166e-05
1.749200327e-05
1.442322924e-05
1.189335544e-05
9.808368038e-06
8.08802713e-06
6.669580643e-06
5.500725385e-06
4.53588083e-06
3.741695225e-06
3.086494001e-06
0.0002531724861
0.000264287812
0.0002736457842
0.0002402399361
0.0002258227379
1.745057225e-05
1.765083804e-05
1.746217992e-05
1.763172248e-05
1.747950194e-05
1.747184398e-05
2.152620338e-05
2.139945747e-05
6.41633707e-05
6.256619527e-05
2.234401064e-05
2.282465571e-05
2.349153016e-05
2.312197864e-05
2.104562505e-05
2.123427234e-05
1.910243774e-05
1.917696204e-05
1.928766519e-05
1.923725176e-05
1.758085619e-05
1.760864255e-05
1.441883255e-05
1.189070825e-05
9.805114068e-06
8.085448114e-06
6.668279332e-06
5.498567661e-06
4.535640161e-06
3.741262305e-06
3.086484626e-06
0.0002492047478
0.0002610100618
0.0002710669382
0.0002358113505
1.439939407e-05
1.743685891e-05
1.440744189e-05
1.741987589e-05
1.441419575e-05
1.901250724e-05
1.890158703e-05
2.20356151e-05
2.153465387e-05
2.110581197e-05
2.139960193e-05
1.984412971e-05
2.020496772e-05
2.08066451e-05
2.053543018e-05
1.860219144e-05
1.876714641e-05
1.739268948e-05
1.745495287e-05
1.754697298e-05
1.750567994e-05
1.737556093e-05
1.739998799e-05
1.188600698e-05
9.80130878e-06
8.083173421e-06
6.665202333e-06
5.497738491e-06
4.5346767e-06
3.740851192e-06
3.086455751e-06
0.0002446419761
0.0002571225896
0.0002679098591
1.188045284e-05
1.439033613e-05
1.437823292e-05
1.731596266e-05
1.722156436e-05
1.942622034e-05
1.902066846e-05
2.029965073e-05
1.885083256e-05
1.868698885e-05
1.753833728e-05
1.78768152e-05
1.840330087e-05
1.816236712e-05
1.69620904e-05
1.710518105e-05
1.720745168e-05
1.726374973e-05
1.734572955e-05
1.730903326e-05
1.434869764e-05
1.436519674e-05
9.797579187e-06
8.078817563e-06
6.663456987e-06
5.4959746e-06
4.533637897e-06
3.740327605e-06
3.086455376e-06
0.0002526367387
0.0002641335479
1.187456831e-05
1.186594403e-05
1.713762564e-05
1.705100661e-05
1.713499203e-05
1.664516386e-05
1.855667707e-05
1.561401011e-05
1.609430553e-05
1.596411667e-05
1.630021173e-05
1.678619477e-05
1.656990254e-05
1.680745074e-05
1.694301962e-05
1.423556583e-05
1.427365461e-05
1.432866267e-05
1.430401819e-05
1.184651713e-05
1.185755628e-05
9.791441968e-06
8.075672914e-06
6.660501641e-06
5.493978167e-06
4.532342589e-06
3.739725156e-06
3.086103126e-06
0.0002597009717
1.418831096e-05
1.412999726e-05
1.554248089e-05
1.495909626e-05
1.831805062e-05
1.282045408e-05
1.409150645e-05
1.573786327e-05
1.613425251e-05
1.663608562e-05
1.641744526e-05
1.396577338e-05
1.405729681e-05
1.177114179e-05
1.17966905e-05
1.183320574e-05
1.18168284e-05
9.778907118e-06
9.786192024e-06
8.070961416e-06
6.657068129e-06
5.491506894e-06
4.53079699e-06
3.738571143e-06
3.085665751e-06
1.173943618e-05
1.17005745e-05
1.517728469e-05
1.444214579e-05
9.470535505e-06
1.122833588e-05
1.327510749e-05
1.322921801e-05
1.35066739e-05
1.384978497e-05
1.370185198e-05
1.159097804e-05
1.165213927e-05
9.729408848e-06
9.746335293e-06
9.770199967e-06
9.759481845e-06
8.065395263e-06
6.652831975e-06
5.488518693e-06
4.528414615e-06
3.737137109e-06
3.085480501e-06
9.708398193e-06
9.682876611e-06
1.282382349e-05
1.227300004e-05
9.30996065e-06
7.81753882e-06
9.785749763e-06
1.132829917e-05
1.108741563e-05
1.128055191e-05
1.15132554e-05
1.141422752e-05
9.610815699e-06
9.651090766e-06
8.039141835e-06
8.05015448e-06
8.058538714e-06
6.647674222e-06
5.484289468e-06
4.525454739e-06
3.735764967e-06
3.085336876e-06
8.025468263e-06
8.009064449e-06
1.07953489e-05
1.038183703e-05
8.156807325e-06
7.244151297e-06
8.460209988e-06
9.619352215e-06
9.270126062e-06
9.403484265e-06
9.559484179e-06
9.494208237e-06
7.962710158e-06
7.988664473e-06
6.640701818e-06
5.47903554e-06
4.522239685e-06
3.734141031e-06
3.085049376e-06
6.632041847e-06
6.621839566e-06
9.060863381e-06
8.749988653e-06
7.085486261e-06
6.566222903e-06
7.268422263e-06
8.136150459e-06
7.735679196e-06
7.826693319e-06
7.929523558e-06
7.887463035e-06
6.593004217e-06
6.609186352e-06
5.473021416e-06
4.518314666e-06
3.731956522e-06
3.084605626e-06
7.586912403e-06
7.352993812e-06
6.113877403e-06
5.857603931e-06
6.213560673e-06
6.859960644e-06
6.445055348e-06
6.50613008e-06
6.572234283e-06
6.546061194e-06
5.456039553e-06
5.465599985e-06
4.513195467e-06
3.729067685e-06
3.084391751e-06
6.340445586e-06
6.164387609e-06
5.247718032e-06
5.163664704e-06
5.290732665e-06
5.769226116e-06
5.362864131e-06
5.402837604e-06
5.443707779e-06
5.428327773e-06
4.506541042e-06
3.725745758e-06
3.080226692e-06
5.290422843e-06
5.157972636e-06
4.485313749e-06
4.510718759e-06
4.49056956e-06
4.841893706e-06
4.457699724e-06
4.482874702e-06
4.498416349e-06
3.716998253e-06
3.072452756e-06
4.408619607e-06
4.309099991e-06
3.820678192e-06
3.912517828e-06
3.801548151e-06
4.056774287e-06
3.702126519e-06
3.052379989e-06
3.66993146e-06
3.595316521e-06
3.245582765e-06
3.374700716e-06
3.211454361e-06
3.394280963e-06
2.996617448e-06
2.750874561e-06
2.897814009e-06
2.708271755e-06
2.836768287e-06
2.327297217e-06
2.479351624e-06
0.0002545740791
0.0002490955066
0.0002475105543
0.0002413748116
0.0002431508645
0.0002397265752
0.0002342483396
0.0002372612317
0.0002309371794
0.000230367626
0.0002263298514
0.0002231345387
0.0002363245317
0.0002451059436
0.0002218836605
0.0002107831398
0.0002240231583
0.000230670684
7.867572092e-05
8.173564544e-05
7.647944299e-05
7.809632782e-05
7.389450314e-05
0.0002149675308
0.0002117533642
0.000216116685
7.460687761e-05
7.744466932e-05
7.461014713e-05
7.508273219e-05
7.877448057e-05
7.75429615e-05
7.876875253e-05
7.239865373e-05
7.470197455e-05
7.336215225e-05
7.02333115e-05
7.051708716e-05
6.76147096e-05
6.739088153e-05
6.519965922e-05
6.781364615e-05
6.607457923e-05
7.436483918e-05
7.152301286e-05
7.547209441e-05
7.459613371e-05
7.337779903e-05
7.662192818e-05
7.855793358e-05
7.307578602e-05
6.835744161e-05
6.843970209e-05
6.489483376e-05
7.123028941e-05
6.634695382e-05
7.142812307e-05
7.625743145e-05
6.995170275e-05
7.289502761e-05
7.602338604e-05
7.204036268e-05
2.502422008e-05
2.44359872e-05
7.465589529e-05
2.595259144e-05
2.539178229e-05
2.312288145e-05
2.400845326e-05
2.431770453e-05
2.276535286e-05
2.473131448e-05
2.285414263e-05
6.629869422e-05
6.799668544e-05
6.520313801e-05
6.224746744e-05
2.238207348e-05
2.251031705e-05
2.157851332e-05
2.121184319e-05
2.190087763e-05
2.186369113e-05
2.217036685e-05
2.269404991e-05
2.195527103e-05
2.227402447e-05
2.183961967e-05
2.209011461e-05
2.396908179e-05
2.392306812e-05
2.452128765e-05
2.31803053e-05
2.335647506e-05
2.281928266e-05
2.424877594e-05
2.230464469e-05
2.250553153e-05
2.338786307e-05
2.417400635e-05
2.447243758e-05
2.32348914e-05
2.411446955e-05
2.492819727e-05
2.217088589e-05
2.348753144e-05
2.228047959e-05
2.194514456e-05
2.216945204e-05
2.154193742e-05
6.385207677e-05
2.127370568e-05
2.058865884e-05
2.029354752e-05
2.119644361e-05
1.965222406e-05
2.209013996e-05
1.915388694e-05
2.13937348e-05
2.004944242e-05
2.262557374e-05
2.171315911e-05
2.317754718e-05
2.077606099e-05
2.159574496e-05
2.362964957e-05
2.160095081e-05
2.284467925e-05
2.390845332e-05
2.163037457e-05
2.168207374e-05
2.190897025e-05
2.318400688e-05
2.45820423e-05
2.369862013e-05
2.272990277e-05
2.092798271e-05
2.190833512e-05
2.460377715e-05
2.197646786e-05
1.187498494e-05
1.890113685e-05
2.002259292e-05
1.994067587e-05
2.02363852e-05
1.919464014e-05
1.957048376e-05
2.097674766e-05
1.885681314e-05
1.875285938e-05
2.092063749e-05
2.192635411e-05
1.986168955e-05
1.996642998e-05
1.970724603e-05
1.81454683e-05
1.967490074e-05
2.350805688e-05
2.234506062e-05
2.085877429e-05
1.887526998e-05
1.389666591e-05
2.14232797e-05
2.066615204e-05
2.369584198e-05
2.151932394e-05
1.991297183e-05
1.864522504e-05
1.178327616e-05
1.453187693e-05
2.20069677e-05
2.317245731e-05
1.859044743e-05
2.027187e-05
1.435559604e-05
1.09260926e-05
1.065692026e-05
9.32552637e-06
1.328115511e-05
1.429795513e-05
1.855158747e-05
2.046251292e-05
1.800861927e-05
1.716978966e-05
2.080068271e-05
1.835290675e-05
1.861899744e-05
1.241997856e-05
1.27518461e-05
1.240748849e-05
2.037414045e-05
1.149524881e-05
1.991603202e-05
1.687606684e-05
1.843070566e-05
1.459521203e-05
1.282561055e-05
1.056580046e-05
1.348936378e-05
1.037358308e-05
1.119975151e-05
1.069162865e-05
1.911381981e-05
1.391853497e-05
1.076445168e-05
1.442055972e-05
1.324718095e-05
1.064833055e-05
9.37361981e-06
1.158559814e-05
1.050272945e-05
1.075067301e-05
1.186353403e-05
1.335734316e-05
1.448683498e-05
1.06170168e-05
1.166361779e-05
8.662133712e-06
9.729244804e-06
8.964253312e-06
8.080329836e-06
1.084577196e-05
1.153101058e-05
1.843440194e-05
1.689609769e-05
1.726291475e-05
1.54861518e-05
1.2234584e-05
9.156813954e-06
9.437002852e-06
9.53834843e-06
9.509673998e-06
9.661119942e-06
9.551108158e-06
9.222340927e-06
9.467347093e-06
1.190166473e-05
9.128156668e-06
8.75318318e-06
1.007867105e-05
1.21843354e-05
1.348979161e-05
1.080301965e-05
1.134801366e-05
9.856641704e-06
1.028479317e-05
9.302676187e-06
8.539059873e-06
1.09609489e-05
8.805290032e-06
9.674396436e-06
9.332197363e-06
8.795880711e-06
1.371381748e-05
1.129114596e-05
1.041038869e-05
8.631816221e-06
9.620808012e-06
1.161210121e-05
1.083048512e-05
8.958614312e-06
8.105335063e-06
9.590225008e-06
8.889539378e-06
9.66397602e-06
8.640325217e-06
1.075259674e-05
9.452989596e-06
1.088776761e-05
1.165777443e-05
8.968629416e-06
9.629580513e-06
7.593030334e-06
8.313716764e-06
7.532866939e-06
6.955979146e-06
8.886567396e-06
9.343060263e-06