/*--------------------------------*- C++ -*----------------------------------*\
  =========                 |
  \\      /  F ield         | OpenFOAM: The Open Source CFD Toolbox
   \\    /   O peration     | Website:  https://openfoam.org
    \\  /    A nd           | Version:  8
     \\/     M anipulation  |
\*---------------------------------------------------------------------------*/






FoamFile
{
    version     2.0;
    format      ascii;
    class       volSymmTensorField;
    location    "0";
    object      TauDDES;
}
// * * * * * * * * * * * * * * * * * * * * * * * * * * * * * * * * * * * * * //

dimensions      [0 2 -2 0 0 0 0];


internalField   nonuniform List<symmTensor>
23276
(
( 1.106223877e-07 -3.632844026e-10 2.354954454e-09 6.139806025e-11 -9.050718508e-11 1.53888351e-07 )
( 4.359510797e-07 -2.090324358e-09 8.600948398e-09 5.250383461e-10 -3.987794539e-10 5.827531595e-07 )
( 1.108212615e-07 -3.656508707e-10 2.107531483e-09 6.169913191e-11 -8.64187541e-11 1.539663401e-07 )
( 1.227258849e-06 -9.670182877e-09 2.269973898e-08 3.167450746e-09 -1.351805445e-09 1.544776978e-06 )
( 4.370036208e-07 -2.097409135e-09 7.939292779e-09 5.26653221e-10 -3.979196139e-10 5.832122838e-07 )
( 1.110733052e-07 -3.643266522e-10 1.842931363e-09 6.152790777e-11 -6.385604545e-11 1.540488626e-07 )
( 2.63093807e-06 -3.14366666e-08 4.826872413e-08 1.255238669e-08 -3.165062656e-09 3.058598622e-06 )
( 1.231054057e-06 -9.69550662e-09 2.162253665e-08 3.170709029e-09 -1.405660588e-09 1.546512635e-06 )
( 4.381653582e-07 -2.084441508e-09 7.172858307e-09 5.262244529e-10 -3.307873142e-10 5.836236028e-07 )
( 1.113608903e-07 -3.657174286e-10 1.596696442e-09 6.215717524e-11 -2.462579966e-11 1.54111774e-07 )
( 4.774976787e-06 -7.926261958e-08 9.446797122e-08 3.760127143e-08 -5.847665463e-09 5.0660733e-06 )
( 2.64084747e-06 -3.151594186e-08 4.716596891e-08 1.254065207e-08 -3.400574267e-09 3.063176337e-06 )
( 1.234985575e-06 -9.658583267e-09 2.027547197e-08 3.168595608e-09 -1.260176186e-09 1.548125738e-06 )
( 4.394369171e-07 -2.071173677e-09 6.375826533e-09 5.265913261e-10 -1.953600753e-10 5.840242352e-07 )
( 1.116805493e-07 -3.712963548e-10 1.427449603e-09 6.341824288e-11 1.683283504e-12 1.541242654e-07 )
( 7.641987395e-06 -1.638858009e-07 1.714328022e-07 9.28216437e-08 -9.4378656e-09 7.406077202e-06 )
( 4.795329005e-06 -7.948535341e-08 9.347694885e-08 3.750297495e-08 -6.429660804e-09 5.075194167e-06 )
( 2.650605893e-06 -3.14521067e-08 4.564722644e-08 1.251819448e-08 -3.300299811e-09 3.067406396e-06 )
( 1.239017706e-06 -9.602072915e-09 1.868176369e-08 3.1627716e-09 -9.547795887e-10 1.54964539e-06 )
( 4.408659038e-07 -2.084892481e-09 5.686037863e-09 5.316078688e-10 -7.378066214e-11 5.843861572e-07 )
( 1.119939981e-07 -3.773795165e-10 1.325846322e-09 6.355929671e-11 5.591030243e-12 1.542505146e-07 )
( 1.09791099e-05 -2.881300816e-07 2.766286116e-07 1.985710725e-07 -1.404177841e-08 9.86568466e-06 )
( 7.675213965e-06 -1.64390201e-07 1.701170333e-07 9.246532073e-08 -1.029298335e-08 7.420981547e-06 )
( 4.814919521e-06 -7.94725139e-08 9.210401686e-08 3.739071985e-08 -6.560847865e-09 5.083850283e-06 )
( 2.660549626e-06 -3.135243531e-08 4.364406081e-08 1.248146209e-08 -2.846677782e-09 3.071461833e-06 )
( 1.243505949e-06 -9.632414866e-09 1.708387209e-08 3.170820495e-09 -5.923603275e-10 1.551185392e-06 )
( 4.423739028e-07 -2.118107467e-09 5.198860009e-09 5.342686848e-10 -1.963875763e-11 5.850050684e-07 )
( 1.12300313e-07 -3.813932781e-10 1.288859353e-09 6.126768537e-11 -3.767770384e-12 1.545935362e-07 )
( 1.436565253e-05 -4.465735515e-07 3.901102446e-07 3.803923789e-07 -1.947511663e-08 1.225826145e-05 )
( 1.10231631e-05 -2.890943165e-07 2.74339726e-07 1.976977586e-07 -1.480644407e-08 9.88670763e-06 )
( 7.706789802e-06 -1.646175889e-07 1.685450002e-07 9.208997653e-08 -1.078179945e-08 7.435492535e-06 )
( 4.834118045e-06 -7.940539604e-08 9.01612367e-08 3.724948883e-08 -6.26016794e-09 5.092115771e-06 )
( 2.670794629e-06 -3.141514782e-08 4.133122999e-08 1.246997972e-08 -2.265084786e-09 3.075435643e-06 )
( 1.248385956e-06 -9.764260511e-09 1.573843278e-08 3.178574959e-09 -3.554481987e-10 1.55308112e-06 )
( 4.438983865e-07 -2.152903855e-09 4.969463951e-09 5.25017696e-10 -2.88889121e-11 5.861419368e-07 )
( 1.125998281e-07 -3.857494879e-10 1.267815186e-09 5.771342779e-11 -1.273425115e-11 1.551295128e-07 )
( 1.740502012e-05 -6.334714158e-07 4.908386586e-07 6.680379556e-07 -2.465888116e-08 1.446815259e-05 )
( 1.441365748e-05 -4.482602378e-07 3.865303029e-07 3.788475169e-07 -1.992787624e-08 1.228484052e-05 )
( 1.106414857e-05 -2.898618163e-07 2.717630707e-07 1.968095944e-07 -1.540153249e-08 9.907526874e-06 )
( 7.736720363e-06 -1.648139261e-07 1.664999587e-07 9.169701087e-08 -1.084892265e-08 7.449704299e-06 )
( 4.852950951e-06 -7.960966286e-08 8.769357862e-08 3.714612262e-08 -5.667680991e-09 5.100341241e-06 )
( 2.681952537e-06 -3.176939956e-08 3.904764512e-08 1.246556902e-08 -1.729268173e-09 3.079785529e-06 )
( 1.253399319e-06 -9.952967339e-09 1.492075086e-08 3.14666071e-09 -2.999523685e-10 1.555795848e-06 )
( 4.453993654e-07 -2.182106051e-09 4.894268102e-09 5.057732011e-10 -5.704144102e-11 5.878126785e-07 )
( 1.129297331e-07 -3.944638505e-10 1.287066453e-09 5.46433003e-11 -1.858173511e-11 1.55712371e-07 )
( 1.981173409e-05 -8.446178299e-07 5.718829925e-07 1.083706479e-06 -2.787548858e-08 1.640038499e-05 )
( 1.744899419e-05 -6.359832696e-07 4.862490641e-07 6.660891358e-07 -2.5081345e-08 1.449870524e-05 )
( 1.445774433e-05 -4.499784438e-07 3.824783619e-07 3.773224648e-07 -2.031182333e-08 1.231123588e-05 )
( 1.110209269e-05 -2.906408554e-07 2.688813083e-07 1.959908928e-07 -1.579748066e-08 9.928544387e-06 )
( 7.764615475e-06 -1.65387732e-07 1.640401592e-07 9.139548496e-08 -1.065635935e-08 7.464077498e-06 )
( 4.872749741e-06 -8.034650278e-08 8.488719772e-08 3.708267826e-08 -4.970555079e-09 5.108722689e-06 )
( 2.693453098e-06 -3.235520296e-08 3.728638376e-08 1.239539849e-08 -1.475766953e-09 3.084957598e-06 )
( 1.258387556e-06 -1.013639306e-08 1.456447585e-08 3.070580457e-09 -3.476150756e-10 1.559444627e-06 )
( 4.469569035e-07 -2.220475803e-09 4.94893504e-09 4.866233527e-10 -8.096536636e-11 5.897350661e-07 )
( 1.132589418e-07 -4.040786872e-10 1.295813346e-09 5.282670482e-11 -2.385822963e-11 1.56425898e-07 )
( 2.14061929e-05 -1.071062115e-06 6.35656761e-07 1.618399551e-06 -2.920249997e-08 1.78968894e-05 )
( 1.984764276e-05 -8.471011483e-07 5.670776773e-07 1.082508106e-06 -2.89183042e-08 1.643150426e-05 )
( 1.749038347e-05 -6.389224154e-07 4.810536893e-07 6.641195114e-07 -2.525991682e-08 1.452827564e-05 )
( 1.449837691e-05 -4.517103491e-07 3.779758231e-07 3.759172387e-07 -2.063295668e-08 1.233753937e-05 )
( 1.113654343e-05 -2.919796032e-07 2.656819333e-07 1.95332035e-07 -1.60329634e-08 9.949717423e-06 )
( 7.792743418e-06 -1.667425948e-07 1.610362403e-07 9.118419086e-08 -1.012919881e-08 7.478407497e-06 )
( 4.892769994e-06 -8.166031051e-08 8.224276371e-08 3.694982809e-08 -4.477191951e-09 5.117847195e-06 )
( 2.704695817e-06 -3.302125506e-08 3.613972765e-08 1.220712686e-08 -1.479170342e-09 3.091381814e-06 )
( 1.263248578e-06 -1.03261808e-08 1.450568909e-08 2.981684233e-09 -4.205343018e-10 1.563862952e-06 )
( 4.484344061e-07 -2.266703936e-09 4.991878466e-09 4.725872471e-10 -1.072644265e-10 5.920731496e-07 )
( 1.135910139e-07 -4.124058317e-10 1.316096454e-09 5.163602879e-11 -3.284833169e-11 1.572642105e-07 )
( 2.142538688e-05 -1.07473727e-06 6.309327887e-07 1.620156127e-06 -3.20773097e-08 1.792148214e-05 )
( 2.223408592e-05 -1.282091148e-06 6.811249591e-07 2.141321602e-06 -3.072637611e-08 1.881018579e-05 )
( 1.98822454e-05 -8.51372647e-07 5.61732179e-07 1.080297352e-06 -2.943944821e-08 1.646081546e-05 )
( 1.752669596e-05 -6.41669601e-07 4.753495091e-07 6.62387265e-07 -2.539262134e-08 1.455733582e-05 )
( 1.453392269e-05 -4.540390819e-07 3.733888434e-07 3.748497477e-07 -2.111109154e-08 1.236455773e-05 )
( 1.116916064e-05 -2.940842023e-07 2.622612669e-07 1.949638317e-07 -1.607631006e-08 9.971427062e-06 )
( 7.820790415e-06 -1.690647764e-07 1.578303284e-07 9.098424414e-08 -9.604812945e-09 7.493310477e-06 )
( 4.912326403e-06 -8.32694198e-08 8.014821162e-08 3.664888482e-08 -4.315280133e-09 5.128016255e-06 )
( 2.715718665e-06 -3.367826196e-08 3.57030423e-08 1.19609247e-08 -1.582125764e-09 3.098808065e-06 )
( 1.267988864e-06 -1.053388843e-08 1.452330967e-08 2.910589769e-09 -4.935680198e-10 1.568927814e-06 )
( 4.499306385e-07 -2.316871361e-09 4.984574975e-09 4.638320839e-10 -1.380051212e-10 5.94718756e-07 )
( 1.139598709e-07 -4.192516889e-10 1.327478794e-09 5.059180852e-11 -3.958377376e-11 1.580192475e-07 )
( 2.225112985e-05 -1.281724508e-06 6.770790151e-07 2.136625426e-06 -3.436787921e-08 1.882626384e-05 )
( 2.146228326e-05 -1.077650722e-06 6.267063668e-07 1.617088174e-06 -3.296108275e-08 1.795062235e-05 )
( 2.246950135e-05 -1.393689558e-06 6.967958939e-07 2.440276148e-06 -3.075039956e-08 1.9127212e-05 )
( 1.991244062e-05 -8.54317932e-07 5.558876524e-07 1.079296339e-06 -2.967865242e-08 1.648884427e-05 )
( 1.756060738e-05 -6.45236014e-07 4.693542337e-07 6.608270269e-07 -2.567115942e-08 1.458607221e-05 )
( 1.456681184e-05 -4.57105557e-07 3.685743764e-07 3.741949115e-07 -2.155387335e-08 1.239181711e-05 )
( 1.120070556e-05 -2.97501856e-07 2.583509797e-07 1.946912391e-07 -1.587822673e-08 9.993198546e-06 )
( 7.847373126e-06 -1.719789964e-07 1.548012989e-07 9.064535789e-08 -9.299910175e-09 7.509144325e-06 )
( 4.930781415e-06 -8.493518777e-08 7.865057228e-08 3.620453981e-08 -4.382125773e-09 5.139703262e-06 )
( 2.725548256e-06 -3.436158735e-08 3.519980751e-08 1.174388586e-08 -1.76188375e-09 3.107488283e-06 )
( 1.27225519e-06 -1.075756728e-08 1.44268002e-08 2.861022086e-09 -6.166236965e-10 1.574763928e-06 )
( 4.513616716e-07 -2.355501127e-09 5.008208515e-09 4.561370448e-10 -1.857603515e-10 5.973106454e-07 )
( 1.143550037e-07 -4.241067775e-10 1.277582373e-09 5.001511358e-11 -4.288467498e-11 1.587893905e-07 )
( 2.228491758e-05 -1.289789793e-06 6.743666745e-07 2.149859029e-06 -3.622036004e-08 1.886354767e-05 )
( 2.250017133e-05 -1.405514013e-06 6.994370096e-07 2.471683274e-06 -3.59979957e-08 1.91660838e-05 )
( 2.147775012e-05 -1.081868959e-06 6.20752644e-07 1.618803935e-06 -3.441247287e-08 1.797121149e-05 )
( 2.270364712e-05 -1.659615691e-06 7.124343711e-07 3.220706276e-06 -2.595696103e-08 1.962082752e-05 )
( 1.994107333e-05 -8.590163247e-07 5.499337021e-07 1.077216893e-06 -3.003365734e-08 1.65160709e-05 )
( 1.75886471e-05 -6.487986184e-07 4.635474511e-07 6.600133702e-07 -2.626085838e-08 1.461593638e-05 )
( 1.459590021e-05 -4.612272448e-07 3.637900932e-07 3.740170769e-07 -2.198352256e-08 1.242006419e-05 )
( 1.123052607e-05 -3.017000836e-07 2.543775679e-07 1.944361117e-07 -1.570018959e-08 1.001571854e-05 )
( 7.87249428e-06 -1.75064045e-07 1.522096937e-07 9.013515978e-08 -9.239901289e-09 7.526199624e-06 )
( 4.947059551e-06 -8.652375527e-08 7.712479544e-08 3.579757646e-08 -4.563069034e-09 5.152723134e-06 )
( 2.734610916e-06 -3.500903389e-08 3.457575559e-08 1.159402618e-08 -1.933719629e-09 3.117570941e-06 )
( 1.276335411e-06 -1.093517188e-08 1.425839802e-08 2.827793999e-09 -7.283317838e-10 1.580797516e-06 )
( 4.528780551e-07 -2.383552467e-09 4.949745946e-09 4.507572926e-10 -2.060365767e-10 5.996894856e-07 )
( 1.147962223e-07 -4.315934554e-10 1.280894391e-09 4.992512653e-11 -3.668487042e-11 1.592811003e-07 )
( 2.229604797e-05 -1.287528562e-06 6.685403378e-07 2.137444199e-06 -3.812620619e-08 1.886818791e-05 )
( 2.252623199e-05 -1.404287218e-06 6.941945685e-07 2.460722953e-06 -3.717755348e-08 1.918665839e-05 )
( 2.270999175e-05 -1.659076133e-06 7.116362895e-07 3.218590336e-06 -3.04234149e-08 1.962680835e-05 )
( 2.151213448e-05 -1.085432132e-06 6.159310146e-07 1.615471547e-06 -3.476194621e-08 1.799743586e-05 )
( 2.273732389e-05 -1.951099193e-06 7.40999667e-07 4.151528628e-06 -2.404689603e-08 1.997155596e-05 )
( 1.996557694e-05 -8.62167667e-07 5.439596862e-07 1.076709623e-06 -3.058272569e-08 1.654361949e-05 )
( 1.76136291e-05 -6.533484793e-07 4.578568564e-07 6.597978199e-07 -2.700664403e-08 1.464637899e-05 )
( 1.462331511e-05 -4.663079665e-07 3.584615627e-07 3.739635588e-07 -2.21914096e-08 1.244788655e-05 )
( 1.125761264e-05 -3.06208733e-07 2.504093857e-07 1.941381242e-07 -1.563964602e-08 1.003907073e-05 )
( 7.893722795e-06 -1.77930346e-07 1.492180104e-07 8.965598397e-08 -9.351371233e-09 7.544409527e-06 )
( 4.961593731e-06 -8.797330509e-08 7.582086425e-08 3.548498739e-08 -4.782326091e-09 5.167106792e-06 )
( 2.743226332e-06 -3.556753114e-08 3.433612505e-08 1.149315754e-08 -2.157320766e-09 3.127409855e-06 )
( 1.280489187e-06 -1.106459901e-08 1.411825057e-08 2.803860477e-09 -7.936367119e-10 1.586459916e-06 )
( 4.545449031e-07 -2.411551403e-09 4.766001815e-09 4.496910622e-10 -1.901586943e-10 6.018677823e-07 )
( 1.152237274e-07 -4.386638275e-10 1.239675917e-09 5.095977113e-11 -3.790721209e-11 1.59791341e-07 )
( 2.234986096e-05 -1.314673568e-06 6.641121217e-07 2.199705023e-06 -3.517472535e-08 1.893497938e-05 )
( 2.256933476e-05 -1.431419719e-06 6.917893529e-07 2.532438202e-06 -3.58982426e-08 1.924469689e-05 )
( 2.275164661e-05 -1.667964852e-06 7.139321951e-07 3.241134664e-06 -3.202712406e-08 1.966434138e-05 )
( 2.152386878e-05 -1.089998364e-06 6.099388656e-07 1.616902637e-06 -3.598302811e-08 1.801777944e-05 )
( 2.25255244e-05 -2.43644422e-06 8.199912713e-07 5.580969628e-06 -1.173740838e-08 2.012121513e-05 )
( 2.278499596e-05 -1.957866061e-06 7.434414329e-07 4.165704013e-06 -2.643263386e-08 2.000138011e-05 )
( 1.998624793e-05 -8.671621003e-07 5.382825066e-07 1.075674163e-06 -3.141542848e-08 1.657193206e-05 )
( 1.763591172e-05 -6.585060532e-07 4.51716943e-07 6.599759672e-07 -2.76084684e-08 1.467653237e-05 )
( 1.464856723e-05 -4.718982325e-07 3.531691277e-07 3.739605461e-07 -2.23542056e-08 1.247667933e-05 )
( 1.128159693e-05 -3.104005373e-07 2.460747908e-07 1.937594192e-07 -1.569816277e-08 1.006325965e-05 )
( 7.912730325e-06 -1.804047969e-07 1.463975394e-07 8.921798411e-08 -9.481691876e-09 7.564246516e-06 )
( 4.975107458e-06 -8.914251026e-08 7.469828489e-08 3.528044701e-08 -5.070233566e-09 5.182097084e-06 )
( 2.751148486e-06 -3.592428399e-08 3.387025416e-08 1.142155259e-08 -2.338189642e-09 3.137568001e-06 )
( 1.284713107e-06 -1.114505999e-08 1.386871329e-08 2.790300657e-09 -8.161748499e-10 1.591720661e-06 )
( 4.56223944e-07 -2.444421776e-09 4.632185302e-09 4.535698483e-10 -1.929300469e-10 6.038144988e-07 )
( 1.156880458e-07 -4.464097425e-10 1.2083059e-09 5.185848279e-11 -4.762883837e-11 1.603299467e-07 )
( 2.23378629e-05 -1.295799734e-06 6.59789066e-07 2.137102911e-06 -4.017629607e-08 1.891023567e-05 )
( 2.260036854e-05 -1.439889729e-06 6.872169251e-07 2.542164793e-06 -3.605808629e-08 1.927098492e-05 )
( 2.275530096e-05 -1.667725996e-06 7.118360372e-07 3.235418262e-06 -3.526310621e-08 1.966428863e-05 )
( 2.155262337e-05 -1.093744004e-06 6.050819366e-07 1.613669156e-06 -3.65022359e-08 1.804420936e-05 )
( 2.216510256e-05 -2.883337856e-06 9.164555195e-07 6.817060239e-06 9.720518612e-09 2.002318251e-05 )
( 2.257369124e-05 -2.442327968e-06 8.23748735e-07 5.59666023e-06 -1.250258741e-08 2.014948222e-05 )
( 2.28310455e-05 -1.971355232e-06 7.462053873e-07 4.191451808e-06 -2.940312172e-08 2.004537055e-05 )
( 2.000521272e-05 -8.713653301e-07 5.319200227e-07 1.076193939e-06 -3.212375788e-08 1.65995898e-05 )
( 1.765659545e-05 -6.646753263e-07 4.452865028e-07 6.602200529e-07 -2.808732269e-08 1.470663483e-05 )
( 1.467008497e-05 -4.771021622e-07 3.472595438e-07 3.73970181e-07 -2.248581232e-08 1.250573041e-05 )
( 1.130187957e-05 -3.139464013e-07 2.414359983e-07 1.934456861e-07 -1.574901631e-08 1.008817526e-05 )
( 7.930204447e-06 -1.823740092e-07 1.439879043e-07 8.892547498e-08 -9.705468429e-09 7.584260402e-06 )
( 4.987854481e-06 -8.993494305e-08 7.375488309e-08 3.51374041e-08 -5.354390709e-09 5.197264272e-06 )
( 2.759067684e-06 -3.609733312e-08 3.341459376e-08 1.137263883e-08 -2.420400325e-09 3.147456937e-06 )
( 1.288978069e-06 -1.122590998e-08 1.340202527e-08 2.800308874e-09 -8.244765981e-10 1.5970096e-06 )
( 4.578553785e-07 -2.477600125e-09 4.456536029e-09 4.607584869e-10 -2.267269289e-10 6.057296105e-07 )
( 1.160615284e-07 -4.510263829e-10 1.183919962e-09 5.241190121e-11 -5.462819433e-11 1.607368461e-07 )
( 2.241544644e-05 -1.35819289e-06 6.601655969e-07 2.296996172e-06 -4.046547275e-08 1.904590135e-05 )
( 2.265599687e-05 -1.49655034e-06 6.890103919e-07 2.699944162e-06 -3.804623105e-08 1.939206777e-05 )
( 2.281537854e-05 -1.70160763e-06 7.136004001e-07 3.323305009e-06 -3.397804349e-08 1.973888538e-05 )
( 2.156185292e-05 -1.099357064e-06 5.981385129e-07 1.615124688e-06 -3.743091526e-08 1.806395449e-05 )
( 2.230300743e-05 -3.012660272e-06 9.218310311e-07 7.145977179e-06 1.77133348e-08 2.007740477e-05 )
( 2.161182056e-05 -3.599705906e-06 1.059652732e-06 8.621109373e-06 4.06649292e-08 1.977962347e-05 )
( 2.264523573e-05 -2.460895075e-06 8.201220112e-07 5.642857559e-06 -1.107415493e-08 2.018796113e-05 )
( 2.287550706e-05 -1.987567657e-06 7.447453072e-07 4.22267567e-06 -3.133730075e-08 2.008974843e-05 )
( 2.278923057e-05 -1.685718189e-06 7.121867611e-07 3.273138191e-06 -4.021913469e-08 1.971307574e-05 )
( 2.002340625e-05 -8.781560155e-07 5.251714015e-07 1.075796945e-06 -3.2615322e-08 1.662718751e-05 )
( 1.767411413e-05 -6.701991424e-07 4.385452712e-07 6.606363741e-07 -2.844226188e-08 1.473737575e-05 )
( 1.468817936e-05 -4.815054808e-07 3.409739406e-07 3.740099146e-07 -2.253513998e-08 1.253497157e-05 )
( 1.131975114e-05 -3.165997953e-07 2.367006289e-07 1.93229468e-07 -1.586946752e-08 1.011323729e-05 )
( 7.94639891e-06 -1.837642998e-07 1.41557706e-07 8.873170998e-08 -1.001143435e-08 7.604927305e-06 )
( 5.000229521e-06 -9.030426895e-08 7.291116333e-08 3.501260082e-08 -5.541886949e-09 5.21264792e-06 )
( 2.767081241e-06 -3.622060163e-08 3.27370735e-08 1.137338401e-08 -2.452666292e-09 3.157481387e-06 )
( 1.293130254e-06 -1.130944849e-08 1.280219752e-08 2.831041401e-09 -8.93411678e-10 1.602238854e-06 )
( 4.593737515e-07 -2.507317465e-09 4.336463633e-09 4.657515484e-10 -2.550138156e-10 6.074079693e-07 )
( 1.164687617e-07 -4.544488674e-10 1.132650973e-09 5.206034562e-11 -5.697353353e-11 1.61275608e-07 )
( 2.237259469e-05 -1.307261982e-06 6.495169487e-07 2.138914397e-06 -4.106624374e-08 1.895326932e-05 )
( 2.267171658e-05 -1.500323606e-06 6.875766303e-07 2.689615712e-06 -4.247711516e-08 1.941433766e-05 )
( 2.158766074e-05 -1.104512307e-06 5.925777486e-07 1.612733399e-06 -3.743308241e-08 1.809133755e-05 )
( 2.269288234e-05 -2.468082812e-06 8.178708981e-07 5.651466381e-06 -9.786795374e-09 2.02248084e-05 )
( 2.235312786e-05 -3.280389592e-06 9.442684927e-07 7.784047739e-06 3.386636038e-08 2.009902892e-05 )
( 2.168565516e-05 -3.775503501e-06 1.058806333e-06 8.987846741e-06 4.651447938e-08 1.975452324e-05 )
( 2.137849879e-05 -4.419968718e-06 1.097185759e-06 1.029812665e-05 7.551071945e-08 1.95011944e-05 )
( 2.28325116e-05 -1.705604404e-06 7.056748359e-07 3.316629318e-06 -3.967261009e-08 1.977141619e-05 )
( 2.292713725e-05 -2.045778274e-06 7.51347784e-07 4.404741048e-06 -3.212825561e-08 2.020219836e-05 )
( 2.28753488e-05 -1.753077072e-06 7.149926091e-07 3.459553454e-06 -3.9474088e-08 1.98612197e-05 )
( 2.003632835e-05 -8.826667681e-07 5.182840255e-07 1.077065576e-06 -3.327203757e-08 1.665580567e-05 )
( 1.768705806e-05 -6.752295008e-07 4.311751525e-07 6.610807759e-07 -2.862371318e-08 1.476758371e-05 )
( 1.470059215e-05 -4.845869626e-07 3.339153807e-07 3.741098737e-07 -2.24203216e-08 1.256355881e-05 )
( 1.133473052e-05 -3.185627406e-07 2.315775873e-07 1.93024789e-07 -1.591444665e-08 1.013884321e-05 )
( 7.961420124e-06 -1.843761197e-07 1.391431255e-07 8.852715183e-08 -1.022181273e-08 7.626113074e-06 )
( 5.012188467e-06 -9.038956961e-08 7.167383131e-08 3.495241785e-08 -5.623383537e-09 5.228364898e-06 )
( 2.775040457e-06 -3.634488621e-08 3.166685403e-08 1.143141137e-08 -2.5481528e-09 3.167397381e-06 )
( 1.297260837e-06 -1.140854433e-08 1.243796621e-08 2.857563741e-09 -9.765307452e-10 1.606601927e-06 )
( 4.610125188e-07 -2.533891541e-09 4.18174162e-09 4.659185815e-10 -2.584979175e-10 6.092830063e-07 )
( 1.168632622e-07 -4.550720079e-10 1.102819613e-09 5.168449349e-11 -6.065451613e-11 1.619143006e-07 )
( 2.24484611e-05 -1.368168569e-06 6.502104952e-07 2.295582362e-06 -4.096703776e-08 1.908759623e-05 )
( 2.272393249e-05 -1.546737622e-06 6.854147614e-07 2.818979965e-06 -4.097145734e-08 1.951251033e-05 )
( 2.159016367e-05 -1.109678465e-06 5.852222671e-07 1.615632982e-06 -3.831098994e-08 1.811347101e-05 )
( 2.274412509e-05 -2.568291166e-06 8.303400136e-07 5.910424534e-06 -3.892900224e-09 2.026584116e-05 )
( 2.254171886e-05 -3.314763262e-06 9.416372109e-07 8.040297871e-06 3.713776664e-08 2.025226422e-05 )
( 2.186520214e-05 -4.145569619e-06 1.074775582e-06 9.952087566e-06 6.555394094e-08 1.985047129e-05 )
( 2.278052125e-05 -2.58099908e-06 8.267987823e-07 5.961620445e-06 -4.867045433e-09 2.029861207e-05 )
( 2.191843305e-05 -4.846451702e-06 1.094867002e-06 1.154668007e-05 9.549694369e-08 1.983251241e-05 )
( 2.293112084e-05 -1.825270601e-06 7.203580026e-07 3.687098797e-06 -3.896199985e-08 1.999453161e-05 )
( 2.296735875e-05 -2.088453584e-06 7.516650271e-07 4.54592282e-06 -2.455434256e-08 2.026853144e-05 )
( 2.288768701e-05 -1.819646513e-06 7.23813173e-07 3.69645727e-06 -3.514991676e-08 1.996449828e-05 )
( 2.004746784e-05 -8.887403169e-07 5.105597438e-07 1.07714834e-06 -3.361732226e-08 1.668436744e-05 )
( 1.769622031e-05 -6.787520874e-07 4.227796637e-07 6.614229733e-07 -2.840793734e-08 1.479790353e-05 )
( 1.471388896e-05 -4.870113344e-07 3.26369161e-07 3.738999226e-07 -2.224722806e-08 1.259271994e-05 )
( 1.13504093e-05 -3.195221154e-07 2.269619159e-07 1.927489848e-07 -1.607994804e-08 1.016454098e-05 )
( 7.976794222e-06 -1.844471029e-07 1.369499785e-07 8.832926568e-08 -1.045997333e-08 7.647227903e-06 )
( 5.024181519e-06 -9.041041693e-08 6.98874203e-08 3.500317902e-08 -5.752033072e-09 5.244198746e-06 )
( 2.782725687e-06 -3.647733138e-08 3.045781227e-08 1.152170714e-08 -2.741261218e-09 3.176748123e-06 )
( 1.30160015e-06 -1.150664275e-08 1.2043194e-08 2.874036342e-09 -1.021860929e-09 1.611376547e-06 )
( 4.625641736e-07 -2.545368138e-09 4.067098658e-09 4.662455977e-10 -2.768100749e-10 6.115476481e-07 )
( 1.172690389e-07 -4.514450758e-10 1.072687161e-09 5.101155956e-11 -6.042572692e-11 1.626442412e-07 )
( 2.240005597e-05 -1.317353622e-06 6.374851296e-07 2.142807716e-06 -4.215335636e-08 1.900105781e-05 )
( 2.270735058e-05 -1.514712721e-06 6.790539828e-07 2.710238277e-06 -4.2901668e-08 1.946618249e-05 )
( 2.160877557e-05 -1.11407553e-06 5.789224247e-07 1.614019197e-06 -3.835470963e-08 1.814308416e-05 )
( 2.281839443e-05 -2.709078217e-06 8.369999591e-07 6.395259788e-06 5.242930534e-09 2.038427192e-05 )
( 2.258568202e-05 -3.30395369e-06 9.33706815e-07 8.165330655e-06 4.578042478e-08 2.029769894e-05 )
( 2.210952516e-05 -4.181966688e-06 1.062006959e-06 1.021531898e-05 7.264272028e-08 2.002920155e-05 )
( 2.284034599e-05 -2.593417776e-06 8.190645531e-07 6.03660601e-06 -4.589376879e-09 2.034701902e-05 )
( 2.235971624e-05 -4.913794783e-06 1.06465518e-06 1.198655627e-05 1.240192802e-07 2.007196235e-05 )
( 2.293159741e-05 -1.883040795e-06 7.245906204e-07 3.905241556e-06 -2.795812115e-08 2.009572927e-05 )
( 2.2987997e-05 -2.185261792e-06 7.5288267e-07 4.858809916e-06 -2.002674648e-08 2.03654181e-05 )
( 2.298325307e-05 -1.922095862e-06 7.35293554e-07 4.016267667e-06 -2.766728002e-08 2.016753751e-05 )
( 2.275994848e-05 -1.603525106e-06 6.875172289e-07 2.998694526e-06 -4.083280913e-08 1.963482646e-05 )
( 2.005173155e-05 -8.919913626e-07 5.017413969e-07 1.07828123e-06 -3.348241506e-08 1.67131202e-05 )
( 1.770298331e-05 -6.815439519e-07 4.135016809e-07 6.612104357e-07 -2.792174492e-08 1.482810057e-05 )
( 1.472367876e-05 -4.882042504e-07 3.186436857e-07 3.735288203e-07 -2.195436011e-08 1.262188198e-05 )
( 1.136425271e-05 -3.196399803e-07 2.221294011e-07 1.9236154e-07 -1.628882451e-08 1.019056435e-05 )
( 7.991272469e-06 -1.842343806e-07 1.340821427e-07 8.824122233e-08 -1.068043876e-08 7.668585567e-06 )
( 5.036324637e-06 -9.053748329e-08 6.795579566e-08 3.51379974e-08 -6.005698161e-09 5.259155387e-06 )
( 2.791424095e-06 -3.669930848e-08 2.95955882e-08 1.158126572e-08 -2.83444912e-09 3.185691639e-06 )
( 1.306144554e-06 -1.157952578e-08 1.17194956e-08 2.871321625e-09 -1.026162599e-09 1.616682084e-06 )
( 4.642227509e-07 -2.543340649e-09 3.950267669e-09 4.625339278e-10 -2.721201875e-10 6.140469395e-07 )
( 1.176892965e-07 -4.474891013e-10 1.040085795e-09 5.079945145e-11 -5.988098906e-11 1.634291635e-07 )
( 2.247198972e-05 -1.375307193e-06 6.392564842e-07 2.296055527e-06 -4.091581118e-08 1.913547749e-05 )
( 2.160376971e-05 -1.118415184e-06 5.700695738e-07 1.616869099e-06 -3.883008759e-08 1.81661344e-05 )
( 2.282135029e-05 -2.693709575e-06 8.335340453e-07 6.447072337e-06 1.156440987e-08 2.041406515e-05 )
( 2.300434244e-05 -2.251275419e-06 7.568405636e-07 5.097235771e-06 -1.097470737e-08 2.044820576e-05 )
( 2.264391696e-05 -3.262916607e-06 9.229985949e-07 8.196866474e-06 5.095069255e-08 2.034401041e-05 )
( 2.235120883e-05 -4.122453447e-06 1.041297082e-06 1.030399471e-05 8.860062195e-08 2.01837247e-05 )
( 2.281428351e-05 -2.735488579e-06 8.334949939e-07 6.610982382e-06 1.605295274e-08 2.042683991e-05 )
( 2.273326572e-05 -4.92922527e-06 1.063909849e-06 1.217684803e-05 1.371074347e-07 2.02262745e-05 )
( 2.243510608e-05 -4.094572432e-06 1.035938567e-06 1.03131606e-05 9.381124499e-08 2.020652755e-05 )
( 2.301035966e-05 -1.971879328e-06 7.281463468e-07 4.183335022e-06 -2.401502996e-08 2.026880065e-05 )
( 2.279277578e-05 -1.612128926e-06 6.790144766e-07 3.006883617e-06 -3.741187271e-08 1.969617006e-05 )
( 2.295174272e-05 -1.91837853e-06 7.164406952e-07 4.038831321e-06 -2.462600968e-08 2.0180516e-05 )
( 2.274345206e-05 -1.548746582e-06 6.791782994e-07 2.814450909e-06 -3.831099704e-08 1.955570769e-05 )
( 2.005783608e-05 -8.956407669e-07 4.923105621e-07 1.077404704e-06 -3.3459024e-08 1.674164196e-05 )
( 1.77094862e-05 -6.825760579e-07 4.04330649e-07 6.607143632e-07 -2.754348749e-08 1.485802022e-05 )
( 1.473477641e-05 -4.885356475e-07 3.115592904e-07 3.729128935e-07 -2.197158899e-08 1.26506884e-05 )
( 1.137784056e-05 -3.192967029e-07 2.17210868e-07 1.919685246e-07 -1.649446446e-08 1.021671414e-05 )
( 8.005835298e-06 -1.842085879e-07 1.307774369e-07 8.828632758e-08 -1.095676527e-08 7.689661288e-06 )
( 5.048979347e-06 -9.077835017e-08 6.5872932e-08 3.526797343e-08 -6.256662743e-09 5.273915576e-06 )
( 2.800374659e-06 -3.689679673e-08 2.878554994e-08 1.160554319e-08 -2.914721575e-09 3.195319096e-06 )
( 1.310645644e-06 -1.159577678e-08 1.139142647e-08 2.863701498e-09 -1.045050046e-09 1.622583113e-06 )
( 4.659085278e-07 -2.535985644e-09 3.833567686e-09 4.609612969e-10 -2.73539108e-10 6.167314837e-07 )
( 1.181615872e-07 -4.416335908e-10 9.93947924e-10 5.096186667e-11 -5.912080547e-11 1.642303289e-07 )
( 2.242004484e-05 -1.326804068e-06 6.259951419e-07 2.150269211e-06 -4.158155775e-08 1.90571518e-05 )
( 2.161696284e-05 -1.120903903e-06 5.625026347e-07 1.614090934e-06 -3.867828724e-08 1.819553836e-05 )
( 2.297760147e-05 -2.341660547e-06 7.671421258e-07 5.39290113e-06 -3.762724354e-09 2.048716851e-05 )
( 2.297890205e-05 -1.972907967e-06 7.158415656e-07 4.210141469e-06 -1.831168817e-08 2.027322262e-05 )
( 2.302749817e-05 -2.017395673e-06 7.290506119e-07 4.34409003e-06 -1.936296279e-08 2.034875979e-05 )
( 2.287529969e-05 -2.714610218e-06 8.130024867e-07 6.659166047e-06 2.013721456e-08 2.050371404e-05 )
( 2.274016333e-05 -3.221236966e-06 9.092473192e-07 8.194109796e-06 4.988018176e-08 2.040614891e-05 )
( 2.287139432e-05 -2.686744438e-06 8.13473207e-07 6.528424819e-06 1.690624174e-08 2.048554779e-05 )
( 2.303280053e-05 -2.272653091e-06 7.438264902e-07 5.230624538e-06 -3.88226562e-09 2.055592995e-05 )
( 2.273647624e-05 -4.018218988e-06 1.03080356e-06 1.034178877e-05 9.435425596e-08 2.032600969e-05 )
( 2.261513146e-05 -4.046063168e-06 1.036377739e-06 1.030862313e-05 9.215818153e-08 2.027206028e-05 )
( 2.304820373e-05 -4.993448329e-06 1.085101076e-06 1.251364483e-05 1.632849944e-07 2.041241532e-05 )
( 2.276851774e-05 -1.582046139e-06 6.702629207e-07 2.909776413e-06 -3.650215064e-08 1.965247247e-05 )
( 2.280988519e-05 -1.611963967e-06 6.684305163e-07 3.005636927e-06 -3.37705508e-08 1.974913539e-05 )
( 2.006042996e-05 -8.96284746e-07 4.8204123e-07 1.077324214e-06 -3.285691719e-08 1.677032924e-05 )
( 1.771352618e-05 -6.833454904e-07 3.947808125e-07 6.597899755e-07 -2.689574075e-08 1.48878471e-05 )
( 1.474151122e-05 -4.879839253e-07 3.038451268e-07 3.721725648e-07 -2.18466969e-08 1.267961761e-05 )
( 1.139042615e-05 -3.18803103e-07 2.121124965e-07 1.917348982e-07 -1.690815132e-08 1.024201629e-05 )
( 8.020832865e-06 -1.842278863e-07 1.272074712e-07 8.840584798e-08 -1.141975403e-08 7.709843885e-06 )
( 5.062734999e-06 -9.107719734e-08 6.405934982e-08 3.535835447e-08 -6.516641893e-09 5.288638931e-06 )
( 2.809541684e-06 -3.700333551e-08 2.798298304e-08 1.159135987e-08 -2.952234679e-09 3.20550339e-06 )
( 1.315299301e-06 -1.158599261e-08 1.107391956e-08 2.853955294e-09 -1.05012532e-09 1.62883498e-06 )
( 4.67725954e-07 -2.521429066e-09 3.71056541e-09 4.612753235e-10 -2.766712137e-10 6.194846947e-07 )
( 1.186823724e-07 -4.35326164e-10 9.718580385e-10 5.169087033e-11 -6.013462645e-11 1.650003725e-07 )
( 2.248656529e-05 -1.38144685e-06 6.271099551e-07 2.29528996e-06 -3.898350087e-08 1.918676571e-05 )
( 2.161007433e-05 -1.122735966e-06 5.521497997e-07 1.616022246e-06 -3.819973671e-08 1.821961632e-05 )
( 2.304600275e-05 -2.00797308e-06 7.173706535e-07 4.33821242e-06 -1.617420864e-08 2.039752144e-05 )
( 2.305021189e-05 -2.004090902e-06 7.121522003e-07 4.33704281e-06 -1.387635429e-08 2.041195512e-05 )
( 2.283516733e-05 -1.616919008e-06 6.560925954e-07 3.020763415e-06 -2.79596275e-08 1.982174581e-05 )
( 2.279067849e-05 -1.584427423e-06 6.582690162e-07 2.922669864e-06 -3.15737303e-08 1.971782876e-05 )
( 2.294336446e-05 -2.66195525e-06 7.953929071e-07 6.541666608e-06 2.01251531e-08 2.057545862e-05 )