/*--------------------------------*- C++ -*----------------------------------*\
  =========                 |
  \\      /  F ield         | OpenFOAM: The Open Source CFD Toolbox
   \\    /   O peration     | Website:  https://openfoam.org
    \\  /    A nd           | Version:  8
     \\/     M anipulation  |
\*---------------------------------------------------------------------------*/






FoamFile
{
    version     2.0;
    format      ascii;
    class       volVectorField;
    location    "0";
    object      UDDES;
}
// * * * * * * * * * * * * * * * * * * * * * * * * * * * * * * * * * * * * * //

dimensions      [0 1 -1 0 0 0 0];


internalField   nonuniform List<vector> 
23276
(
( 0.0002182028838 6.183929031e-07 1.021034586e-05 )
( 0.0004963345127 1.502056762e-06 2.235883767e-05 )
( 0.0002218905429 6.241547226e-07 1.02650738e-05 )
( 0.0009481298621 4.189384981e-06 4.092277595e-05 )
( 0.0005040932447 1.485391522e-06 2.247162411e-05 )
( 0.0002254586288 6.317588372e-07 1.033802528e-05 )
( 0.001540098572 9.377096831e-06 6.321313413e-05 )
( 0.0009615616291 4.12467034e-06 4.108761641e-05 )
( 0.0005116076209 1.471949645e-06 2.263091301e-05 )
( 0.0002289323747 6.388331713e-07 1.038893424e-05 )
( 0.002294217702 1.794533455e-05 8.88685754e-05 )
( 0.001559421304 9.219265849e-06 6.337148807e-05 )
( 0.0009745986899 4.062200333e-06 4.130865273e-05 )
( 0.0005189230433 1.458713427e-06 2.275710358e-05 )
( 0.0002323255176 6.441841833e-07 1.04327537e-05 )
( 0.003210063325 3.100015965e-05 0.0001165411668 )
( 0.002319069579 1.762378997e-05 8.903174603e-05 )
( 0.00157817814 9.061692253e-06 6.364136789e-05 )
( 0.0009872603696 4.003144568e-06 4.15670147e-05 )
( 0.0005260722828 1.446099645e-06 2.287209645e-05 )
( 0.0002356528712 6.482604817e-07 1.046734178e-05 )
( 0.004253390245 4.967655696e-05 0.0001440548076 )
( 0.003239320358 3.041035416e-05 0.0001167051669 )
( 0.002343227156 1.730071017e-05 8.924942813e-05 )
( 0.00159641949 8.909116332e-06 6.394906086e-05 )
( 0.0009996348526 3.946383458e-06 4.177447772e-05 )
( 0.000533071172 1.430565248e-06 2.296561979e-05 )
( 0.0002389180445 6.504009775e-07 1.048733884e-05 )
( 0.005363647826 7.466100942e-05 0.000169618681 )
( 0.004285183735 4.867352982e-05 0.0001442314242 )
( 0.003267734079 2.981864782e-05 0.0001169215102 )
( 0.002366661327 1.698241977e-05 8.961977437e-05 )
( 0.001614146982 8.762816833e-06 6.432946248e-05 )
( 0.001011737273 3.887384537e-06 4.197352973e-05 )
( 0.0005399431102 1.412719826e-06 2.304317604e-05 )
( 0.0002421341487 6.511104971e-07 1.051263916e-05 )
( 0.006477783434 0.0001057888585 0.0001933504391 )
( 0.005395662505 7.307744818e-05 0.0001698385313 )
( 0.004315986298 4.767455539e-05 0.0001444483496 )
( 0.003295292379 2.923260217e-05 0.0001172516058 )
( 0.002389415633 1.667455581e-05 9.007783956e-05 )
( 0.001631505555 8.613243153e-06 6.464325998e-05 )
( 0.001023606514 3.822348845e-06 4.214695218e-05 )
( 0.000546692987 1.391044179e-06 2.312801371e-05 )
( 0.0002452862391 6.490926125e-07 1.055218854e-05 )
( 0.007534522563 0.0001418850297 0.0002170487278 )
( 0.006507970858 0.0001035057358 0.0001936840999 )
( 0.005426599178 7.150800957e-05 0.0001700888824 )
( 0.004345798865 4.668468682e-05 0.000144758902 )
( 0.003321952885 2.866525574e-05 0.0001177524973 )
( 0.002411620226 1.636430534e-05 9.052313544e-05 )
( 0.001648499514 8.457493095e-06 6.493694673e-05 )
( 0.001035246067 3.749672032e-06 4.232322317e-05 )
( 0.0005532969953 1.365449521e-06 2.322126966e-05 )
( 0.0002483696153 6.462860256e-07 1.059419446e-05 )
( 0.008456895128 0.0001816608128 0.0002411707974 )
( 0.007561417297 0.0001388263772 0.0002175255941 )
( 0.006536971778 0.0001011759086 0.0001940389775 )
( 0.005456489045 6.995915464e-05 0.0001703803282 )
( 0.004374621436 4.572395483e-05 0.0001451868593 )
( 0.003347930033 2.809293437e-05 0.0001182265405 )
( 0.00243331911 1.604542558e-05 9.092575056e-05 )
( 0.00166515063 8.287438504e-06 6.522058538e-05 )
( 0.001046640682 3.669001671e-06 4.249997801e-05 )
( 0.0005597911659 1.339286086e-06 2.330700045e-05 )
( 0.000251402409 6.425580068e-07 1.064521985e-05 )
( 0.008477722295 0.000175952955 0.0002416173229 )
( 0.009122984484 0.0002145670733 0.0002616954444 )
( 0.00758736534 0.0001355911518 0.0002180098236 )
( 0.006564961281 9.898441203e-05 0.0001944118412 )
( 0.005485280417 6.846168981e-05 0.0001707667834 )
( 0.004402539693 4.47688144e-05 0.0001456490281 )
( 0.003373207059 2.751500688e-05 0.0001186801674 )
( 0.002454493428 1.570483437e-05 9.132569539e-05 )
( 0.001681365655 8.097422324e-06 6.550162652e-05 )
( 0.001057755202 3.581345936e-06 4.267531767e-05 )
( 0.0005661182222 1.313218718e-06 2.340272295e-05 )
( 0.0002543400042 6.370295864e-07 1.07000069e-05 )
( 0.009136285633 0.0002087459579 0.0002616207639 )
( 0.008502690122 0.0001734702673 0.0002422489633 )
( 0.00942019932 0.000231801052 0.000273048121 )
( 0.007612010464 0.0001327050995 0.0002184791811 )
( 0.006591799203 9.677275375e-05 0.0001947848359 )
( 0.00551309064 6.69857327e-05 0.000171163847 )
( 0.004429673776 4.381457256e-05 0.0001460807398 )
( 0.003397795837 2.69124248e-05 0.0001191381234 )
( 0.002475136425 1.534191142e-05 9.169062832e-05 )
( 0.001697297441 7.901769095e-06 6.573117571e-05 )
( 0.001068709884 3.495657438e-06 4.281198926e-05 )
( 0.0005723346258 1.28483282e-06 2.348098678e-05 )
( 0.0002571753575 6.319518207e-07 1.074919601e-05 )
( 0.009169469588 0.0002049378527 0.0002630869858 )
( 0.009459854104 0.0002287060051 0.0002752559958 )
( 0.008521266282 0.0001680432179 0.0002426825959 )
( 0.0100423824 0.0002745307575 0.0002977105614 )
( 0.007635811809 0.0001296555565 0.0002189234365 )
( 0.006617659237 9.471130033e-05 0.0001951984304 )
( 0.005540004931 6.555343134e-05 0.0001715878316 )
( 0.004455952439 4.284580427e-05 0.0001465159439 )
( 0.003421674483 2.62881731e-05 0.0001195625227 )
( 0.002495303983 1.497015182e-05 9.204065282e-05 )
( 0.001712750876 7.703863957e-06 6.601248606e-05 )
( 0.001079353853 3.407615623e-06 4.298687418e-05 )
( 0.0005783169763 1.256980113e-06 2.358988422e-05 )
( 0.0002599772997 6.232772876e-07 1.081394657e-05 )
( 0.009174129926 0.0001990964229 0.0002627012145 )
( 0.009473615326 0.0002219323942 0.0002751822467 )
( 0.01004891191 0.0002666261571 0.0002976850374 )
( 0.008544003591 0.0001657874964 0.0002432662586 )
( 0.01064226404 0.0003139915061 0.0003208899871 )
( 0.007658356335 0.0001269298664 0.0002193460532 )
( 0.006642579567 9.264400433e-05 0.0001956016786 )
( 0.005566095933 6.412256334e-05 0.0001719690335 )
( 0.004481510259 4.188033199e-05 0.0001469293493 )
( 0.003445097245 2.566405419e-05 0.0001199787876 )
( 0.002514929743 1.458801671e-05 9.238769417e-05 )
( 0.001727850176 7.492291843e-06 6.622624642e-05 )
( 0.001089625061 3.318736844e-06 4.316687409e-05 )
( 0.0005840995582 1.228554311e-06 2.371445225e-05 )
( 0.0002626827336 6.148496823e-07 1.085077383e-05 )
( 0.009244807996 0.0001970592275 0.0002653009433 )
( 0.009542394429 0.0002198127768 0.0002776902984 )
( 0.01008366235 0.0002621253952 0.0002994053357 )
( 0.008560648188 0.0001606242877 0.0002436998184 )
( 0.0113565065 0.0003731757752 0.0003467821225 )
( 0.01066657156 0.0002971634385 0.0003213754098 )
( 0.007680234499 0.0001240686543 0.000219765192 )
( 0.006666658912 9.068495274e-05 0.0001959686342 )
( 0.005591286346 6.270833546e-05 0.000172321219 )
( 0.004506344441 4.089280628e-05 0.0001473031443 )
( 0.003467728151 2.501795279e-05 0.0001204269793 )
( 0.002534054918 1.418924512e-05 9.270077862e-05 )
( 0.001742530963 7.288517281e-06 6.647234841e-05 )
( 0.001099630375 3.229182767e-06 4.336108032e-05 )
( 0.0005897919182 1.199920348e-06 2.384154504e-05 )
( 0.0002653464326 6.032612418e-07 1.093818901e-05 )
( 0.009208061732 0.0001902248478 0.000263980357 )
( 0.009568713605 0.0002144016034 0.0002782124211 )
( 0.01008472964 0.000254484039 0.0002990062931 )
( 0.008581444621 0.0001585489954 0.0002442062832 )
( 0.01185208093 0.0004197269154 0.0003598318144 )
( 0.01137231383 0.0003580266784 0.0003469862859 )
( 0.0106996065 0.0002840174711 0.0003232750751 )
( 0.007700966671 0.0001214875665 0.0002201344032 )
( 0.006689846516 8.8680099e-05 0.0001962859533 )
( 0.005615771282 6.128693349e-05 0.0001726591581 )
( 0.004530499689 3.990182813e-05 0.0001477349724 )
( 0.003489804687 2.434788075e-05 0.000120810997 )
( 0.002552656457 1.379632067e-05 9.298398072e-05 )
( 0.001756732119 7.086351161e-06 6.671595474e-05 )
( 0.001109338016 3.148083579e-06 4.355349665e-05 )
( 0.0005953428918 1.172259999e-06 2.397739445e-05 )
( 0.0002679076861 5.906818501e-07 1.098415851e-05 )
( 0.009356848896 0.0001925176475 0.0002698176249 )
( 0.009705886245 0.0002159311698 0.0002838849323 )
( 0.01016863063 0.0002521713614 0.0003024604521 )
( 0.008596159518 0.0001535502815 0.0002445727587 )
( 0.01194132492 0.0003744946443 0.0003637566697 )
( 0.01245750953 0.0004792254185 0.0003733166377 )
( 0.01139233448 0.0003356724919 0.0003471310192 )
( 0.01072957739 0.0002694631112 0.0003252630704 )
( 0.01013261918 0.0002434312337 0.0003014429822 )
( 0.007721090689 0.0001187505186 0.0002204828197 )
( 0.00671226345 8.676002471e-05 0.0001966080163 )
( 0.005639583338 5.985709504e-05 0.0001730535296 )
( 0.004554129671 3.887492858e-05 0.0001481542713 )
( 0.003511386458 2.368878813e-05 0.0001211308045 )
( 0.002570688492 1.341022198e-05 9.322586266e-05 )
( 0.001770534902 6.898871561e-06 6.697850768e-05 )
( 0.001118859975 3.07290361e-06 4.379466554e-05 )
( 0.0006006962503 1.144159e-06 2.407178181e-05 )
( 0.0002704077633 5.759911801e-07 1.10534229e-05 )
( 0.009241096675 0.0001819364115 0.0002651565592 )
( 0.009717390873 0.00021094369 0.0002844320552 )
( 0.008615074679 0.0001516949269 0.0002450667089 )
( 0.01140117273 0.000322464999 0.0003484323388 )
( 0.01210447215 0.0003466027265 0.0003740755783 )
( 0.01254880801 0.0004420996411 0.0003776429512 )
( 0.0129216807 0.0005091468338 0.0003809551126 )
( 0.0101813497 0.0002331435826 0.0003042196622 )
( 0.01084889378 0.0002620808082 0.000330432289 )
( 0.01029472053 0.0002450109168 0.0003083872143 )
( 0.007740292232 0.0001162920234 0.0002208737569 )
( 0.006734066643 8.478535165e-05 0.0001970861776 )
( 0.005662877113 5.842081737e-05 0.0001736750564 )
( 0.00457700016 3.787906098e-05 0.0001487214176 )
( 0.003532222938 2.304412374e-05 0.0001215077573 )
( 0.002588178497 1.304755278e-05 9.355224756e-05 )
( 0.001783971675 6.726605989e-06 6.726276479e-05 )
( 0.001128000324 2.999139497e-06 4.390704635e-05 )
( 0.0006058799336 1.11421582e-06 2.418367876e-05 )
( 0.0002728503023 5.605632509e-07 1.112112022e-05 )
( 0.00938337855 0.0001840248588 0.0002708702523 )
( 0.009827027097 0.0002108990011 0.000288903655 )
( 0.008628224954 0.000147004117 0.0002455075737 )
( 0.01147327479 0.0003031942761 0.000353214331 )
( 0.01214869507 0.000308620336 0.0003783582069 )
( 0.01274340227 0.0003896426351 0.000390073692 )
( 0.01149487495 0.0002934368385 0.0003537617449 )
( 0.01309464034 0.0003978111199 0.0003879588912 )
( 0.01044954918 0.0002391409362 0.0003149518161 )
( 0.01092864666 0.0002512212959 0.000331913674 )
( 0.01042701863 0.0002314597223 0.0003120411129 )
( 0.007758998312 0.0001136751162 0.0002213758999 )
( 0.006755277514 8.287801029e-05 0.0001976961503 )
( 0.00568550732 5.695393702e-05 0.000174152563 )
( 0.004599253647 3.686403579e-05 0.0001490737486 )
( 0.003552484326 2.241294897e-05 0.000121788551 )
( 0.0026050983 1.271496785e-05 9.391629283e-05 )
( 0.00179696444 6.574536201e-06 6.747890438e-05 )
( 0.00113691669 2.922575504e-06 4.411290138e-05 )
( 0.0006110027898 1.085815256e-06 2.433055306e-05 )
( 0.0002752183645 5.445216402e-07 1.117448755e-05 )
( 0.009270609356 0.0001742978639 0.000266211835 )
( 0.009755278006 0.0002025257854 0.0002859789529 )
( 0.008645989001 0.0001453235745 0.0002461922122 )
( 0.01165646873 0.0002764351375 0.0003618161427 )
( 0.01218877733 0.0002799793147 0.000383904553 )
( 0.01276275702 0.0003498618316 0.0003944700002 )
( 0.01151789166 0.0002783350064 0.0003541786573 )
( 0.01312199887 0.0003087629448 0.0003917189315 )
( 0.0105638057 0.0002271724516 0.0003186973336 )
( 0.01108026505 0.0002476061636 0.0003397362598 )
( 0.01065832563 0.000236107473 0.0003214114986 )
( 0.009957685135 0.000205676828 0.0002940410923 )
( 0.007776895072 0.0001112761529 0.0002221486066 )
( 0.006775770802 8.085763693e-05 0.000198434951 )
( 0.005707279313 5.550750211e-05 0.0001748207287 )
( 0.004620843567 3.589061816e-05 0.0001495099277 )
( 0.003572178073 2.181561467e-05 0.0001222278079 )
( 0.002621531021 1.240846541e-05 9.422942094e-05 )
( 0.001809535897 6.410909009e-06 6.774960639e-05 )
( 0.001145574381 2.848875965e-06 4.433120557e-05 )
( 0.0006159620243 1.057539862e-06 2.445984501e-05 )
( 0.0002775718458 5.282078064e-07 1.126050302e-05 )
( 0.009407028556 0.0001762102183 0.0002721289929 )
( 0.008658085018 0.00014068374 0.0002467643644 )
( 0.01167645864 0.0002569494827 0.0003653498134 )
( 0.01118568052 0.0002381556696 0.0003469943185 )
( 0.01220247988 0.0002559481072 0.0003881877055 )
( 0.01274998952 0.000299689942 0.0003983261704 )
( 0.01173489168 0.000251784164 0.0003696214117 )
( 0.01310617663 0.0002233217965 0.0003972849809 )
( 0.01274576597 0.0002802944509 0.0004004662915 )
( 0.01076026168 0.000229333571 0.0003282767138 )
( 0.009983452037 0.0001971023303 0.0002963518491 )
( 0.01064536814 0.0002195611887 0.0003238556383 )
( 0.009840132669 0.0001964354306 0.0002880015818 )
( 0.007794554811 0.0001085566255 0.0002227728546 )
( 0.006795889232 7.885433297e-05 0.0001990334131 )
( 0.005728558172 5.405880802e-05 0.0001751915406 )
( 0.004641571082 3.494055636e-05 0.000149921354 )
( 0.003590906505 2.128381675e-05 0.0001225954766 )
( 0.002637344413 1.212359803e-05 9.457146371e-05 )
( 0.001821838319 6.254632353e-06 6.809531624e-05 )
( 0.001154083409 2.780386922e-06 4.457127579e-05 )
( 0.0006208657869 1.032892555e-06 2.462915108e-05 )
( 0.0002798728237 5.131067837e-07 1.134066042e-05 )
( 0.009301290847 0.0001670143829 0.0002678643796 )
( 0.008674992248 0.000138861913 0.0002474455978 )
( 0.0113040721 0.0002344289969 0.0003536752774 )
( 0.0107345432 0.0002140342549 0.0003305999853 )
( 0.01083708461 0.0002227185323 0.0003343600256 )
( 0.01175389346 0.0002286374947 0.0003749265452 )
( 0.01220080536 0.0002272848942 0.0003919480077 )
( 0.0117093157 0.0002385359257 0.0003713474725 )
( 0.01125168707 0.0002204915945 0.0003541167243 )
( 0.01271508634 0.0002070418268 0.0004053388548 )
( 0.01272454206 0.0002380556252 0.0004046132381 )
( 0.01310326811 0.0001426385716 0.0004017225874 )
( 0.009917151183 0.0001910083229 0.0002937910613 )
( 0.009998662397 0.0001882460492 0.0002978732809 )
( 0.007811452262 0.0001059926144 0.0002235818974 )
( 0.006815195084 7.684273442e-05 0.0001997348736 )
( 0.00574896764 5.267657252e-05 0.000175850917 )
( 0.004661778919 3.406253381e-05 0.0001504378452 )
( 0.003609183943 2.078898069e-05 0.0001230111811 )
( 0.002652936848 1.183265886e-05 9.50351241e-05 )
( 0.001833789516 6.105827197e-06 6.843168376e-05 )
( 0.00116239523 2.718215001e-06 4.483425073e-05 )
( 0.0006256456836 1.010141318e-06 2.478378337e-05 )
( 0.0002821022936 4.972379202e-07 1.13920687e-05 )
( 0.009429237805 0.000168326369 0.0002733680885 )
( 0.008686206304 0.0001341092284 0.0002482371056 )
( 0.01084239688 0.000210623024 0.0003365242737 )
( 0.01084350608 0.0002077586541 0.0003373699437 )
( 0.01002922561 0.0001803495397 0.0003006619809 )
( 0.009944342077 0.0001830814726 0.0002959344711 )
( 0.01171744801 0.0002116967225 0.0003758453531 )
( 0.01125149801 0.0001999822998 0.0003576315648 )
( 0.01224803459 0.000198601716 0.0003983289353 )
( 0.01177071594 0.0002029504394 0.0003797187819 )
( 0.01132220961 0.0002162980236 0.0003586675448 )
( 0.01084749959 0.0001989057928 0.0003397093387 )
( 0.01084669866 0.0002015829086 0.0003391030186 )
( 0.01272884011 0.000166826052 0.0004067971895 )
( 0.01311947219 7.396819274e-05 0.0004102143575 )
( 0.01277541276 0.0001403795904 0.0004098775971 )
( 0.009323792532 0.0001594400383 0.0002691594127 )
( 0.007828133181 0.0001033014996 0.0002243264171 )
( 0.006833843887 7.494285819e-05 0.0002004122653 )
( 0.005768740084 5.136219988e-05 0.0001763816836 )
( 0.004680839833 3.327278318e-05 0.0001508433634 )
( 0.00362683204 2.030836185e-05 0.000123474776 )
( 0.00266798283 1.155444716e-05 9.550889808e-05 )
( 0.00184559694 5.96802056e-06 6.886204937e-05 )
( 0.001170601347 2.660419568e-06 4.513409658e-05 )
( 0.000630301598 9.885485497e-07 2.490318911e-05 )
( 0.0002843016991 4.803289357e-07 1.145712031e-05 )
( 0.008701970801 0.0001323184115 0.0002491624036 )
( 0.01007679664 0.0001810636313 0.0003030527441 )
( 0.01018814277 0.0001795279677 0.0003094096319 )
( 0.009355882183 0.0001527943095 0.0002715412993 )
( 0.009449478239 0.0001605332654 0.0002750521526 )
( 0.01132130064 0.00019235113 0.0003626634134 )
( 0.0108557865 0.0001780986204 0.0003438547719 )
( 0.0108545851 0.0001805350912 0.0003432460944 )
( 0.01187616587 0.0001839477336 0.0003877244599 )
( 0.01224287041 0.0001689105411 0.0003987528326 )
( 0.01180237532 0.0001921353833 0.000382918166 )
( 0.01126439031 0.0001799998863 0.000361128099 )
( 0.01085003465 0.000192875741 0.0003414516978 )
( 0.0108511271 0.0001899304189 0.0003419076093 )
( 0.01019845158 0.0001707864867 0.0003120505717 )
( 0.01019499917 0.0001780297607 0.0003104625212 )
( 0.01308188401 1.432580484e-05 0.0004167028819 )
( 0.01282355189 8.131780487e-05 0.0004190221371 )
( 0.01281413808 0.0001051793224 0.000415396993 )
( 0.0122500807 0.0001427291427 0.0004034041194 )
( 0.007843902335 0.0001008067193 0.0002251574915 )
( 0.006852075458 7.305273903e-05 0.0002011519391 )
( 0.005787843373 5.014120688e-05 0.000176981659 )
( 0.004699682817 3.249946894e-05 0.0001514203177 )
( 0.003644311801 1.982997128e-05 0.0001241001301 )
( 0.002682788065 1.129203702e-05 9.605363448e-05 )
( 0.001857029856 5.839357527e-06 6.92438407e-05 )
( 0.001178549603 2.60817751e-06 4.536411871e-05 )
( 0.0006349269534 9.658607496e-07 2.506470264e-05 )
( 0.0002864601556 4.633048434e-07 1.152546429e-05 )
( 0.008712220006 0.0001276790572 0.000250046287 )
( 0.009468564764 0.0001529876026 0.0002770804567 )
( 0.009478088468 0.0001510432339 0.0002779882634 )
( 0.01085860841 0.0001728906936 0.0003455966944 )
( 0.01085962541 0.0001701970323 0.000346180721 )
( 0.01021852344 0.0001536264317 0.0003170536365 )
( 0.0102151772 0.0001604311983 0.0003154926235 )
( 0.01187308785 0.0001710315701 0.0003885537444 )
( 0.01132455561 0.0001618329261 0.0003666769771 )
( 0.01187280007 0.0001578051451 0.0003897790157 )
( 0.01132202148 0.0001706092589 0.000365786429 )
( 0.01086305734 0.0001603895362 0.0003474467958 )
( 0.01086203475 0.0001626731537 0.0003472165263 )
( 0.01020505559 0.0001694305683 0.0003130841942 )
( 0.01020858809 0.0001619484974 0.0003145167138 )
( 0.009495107457 0.0001437153987 0.0002804541145 )
( 0.009486072697 0.0001455397141 0.0002794013417 )
( 0.01303613186 -3.933875632e-05 0.0004218134563 )
( 0.01279030275 2.897936065e-05 0.0004273671657 )
( 0.01280489378 5.047133163e-05 0.0004235192609 )
( 0.01225274522 9.502921603e-05 0.0004093861207 )
( 0.01225838438 0.0001179875253 0.0004065875837 )
( 0.01187226549 0.0001356740977 0.0003938247683 )
( 0.01187160332 0.0001471031283 0.0003918981529 )
( 0.007859436795 9.8241042e-05 0.0002258771274 )
( 0.00686950516 7.132582687e-05 0.0002018319792 )
( 0.005806183442 4.895354868e-05 0.0001776476274 )
( 0.00471807085 3.172631114e-05 0.0001521261293 )
( 0.003661445808 1.937348134e-05 0.0001248338085 )
( 0.002697197022 1.103924296e-05 9.660451906e-05 )
( 0.001868260326 5.720110948e-06 6.961712643e-05 )
( 0.001186396228 2.555726041e-06 4.563408584e-05 )
( 0.0006393870572 9.450515108e-07 2.518798101e-05 )
( 0.0002885841823 4.455645239e-07 1.159493968e-05 )
( 0.008727317676 0.0001259371493 0.0002509339829 )
( 0.008736677468 0.0001213468495 0.0002517659741 )
( 0.01022464968 0.0001525940461 0.000318203005 )
( 0.01022779942 0.0001459645428 0.0003196202451 )
( 0.009527195245 0.000129742577 0.0002858364605 )
( 0.00951893162 0.0001312657114 0.000284627662 )
( 0.01132736355 0.0001488350972 0.000368414243 )
( 0.01087430678 0.0001415648003 0.0003502292384 )
( 0.01087181643 0.0001451315329 0.0003496053687 )
( 0.01133067347 0.0001404535142 0.0003695518535 )
( 0.01086561941 0.0001565839484 0.0003483506152 )
( 0.01086766459 0.0001528571593 0.0003487748618 )
( 0.01023669355 0.0001391484402 0.0003213579475 )
( 0.01023401041 0.0001443732035 0.0003205536923 )
( 0.009502755478 0.0001384016505 0.0002819421934 )
( 0.009511475451 0.0001366683427 0.0002830893209 )
( 0.008759577759 0.0001152911645 0.0002539238776 )
( 0.008750813082 0.0001197362362 0.0002529137419 )
( 0.01296388917 -8.505597361e-05 0.0004253744264 )
( 0.01273815334 -1.754918958e-05 0.0004350064846 )
( 0.01276678406 8.164556675e-07 0.0004319960135 )
( 0.01223110687 5.419084846e-05 0.0004154980707 )
( 0.01224006061 7.423640636e-05 0.0004120701633 )
( 0.01186655182 9.476780542e-05 0.000398702512 )
( 0.01186998934 0.0001051113795 0.0003978699679 )
( 0.0118708089 0.0001257543918 0.0003955182037 )
( 0.0118711032 0.0001147024814 0.0003966538934 )
( 0.01133835688 0.0001221956627 0.0003728329611 )
( 0.01133447792 0.0001292398083 0.0003714977647 )
( 0.007874322124 9.585257794e-05 0.0002267624368 )
( 0.006886586081 6.952225522e-05 0.0002027019218 )
( 0.005824252497 4.777590948e-05 0.0001784731576 )
( 0.004736332223 3.099616515e-05 0.0001530173176 )
( 0.003678086912 1.893055742e-05 0.000125556704 )
( 0.002711309819 1.080178208e-05 9.712238534e-05 )
( 0.001879458432 5.597599738e-06 7.007558452e-05 )
( 0.001194193494 2.502456709e-06 4.594924758e-05 )
( 0.0006438785349 9.210492635e-07 2.537426735e-05 )
( 0.0002906799782 4.268551379e-07 1.167681876e-05 )
( 0.009534236044 0.000124844868 0.000287456467 )
( 0.00954238046 0.0001233529765 0.0002885851136 )
( 0.008802563883 0.0001040899806 0.0002593387617 )
( 0.008794615977 0.0001082765084 0.0002579770808 )
( 0.01087790262 0.0001380048634 0.0003514808486 )
( 0.01088061929 0.0001346482459 0.0003522984043 )
( 0.01025790256 0.0001236515527 0.0003247610002 )
( 0.01025461778 0.0001285579929 0.0003240081132 )
( 0.01088805683 0.0001238878322 0.0003537504235 )
( 0.01088521164 0.0001272204245 0.0003530324029 )
( 0.01024371106 0.000136680057 0.0003225226246 )
( 0.01024683565 0.0001316926646 0.0003232814197 )
( 0.00955717545 0.0001169332536 0.0002910591138 )
( 0.009549263865 0.0001183733912 0.0002899597166 )
( 0.008773182519 0.0001139218875 0.0002552789229 )
( 0.008781610988 0.000109564091 0.0002565125178 )
( 0.007902996615 9.110405517e-05 0.0002287732059 )
( 0.007888833061 9.34271593e-05 0.0002277079766 )
( 0.01268908568 -4.019402695e-05 0.0004385535722 )
( 0.01266262215 -5.691407205e-05 0.0004417025775 )
( 0.01291559171 -0.0001299499272 0.0004284966271 )
( 0.01219938137 1.713308666e-05 0.0004240778217 )
( 0.01220853906 3.524610656e-05 0.0004205984587 )
( 0.01185752358 6.104661588e-05 0.0004027504765 )
( 0.01186079904 6.985951768e-05 0.0004014924925 )
( 0.01186222583 8.665820496e-05 0.0003994739964 )
( 0.01186205633 7.767543138e-05 0.0004002210335 )
( 0.01135211065 8.828085265e-05 0.0003762717824 )
( 0.01134882029 9.473555838e-05 0.0003759598185 )
( 0.01134206355 0.0001113677354 0.0003747273295 )
( 0.01134559792 0.0001047300684 0.0003754609497 )
( 0.01090220455 0.000108270935 0.0003564028302 )
( 0.01089951582 0.0001112325263 0.0003558821336 )
( 0.01089188363 0.0001209699549 0.0003545691725 )
( 0.01089451741 0.0001179899118 0.0003547628876 )
( 0.006903039757 6.787432358e-05 0.0002036154474 )
( 0.005841954146 4.667869143e-05 0.000179417766 )
( 0.004753929563 3.028780338e-05 0.000153889443 )
( 0.003694219049 1.852085006e-05 0.0001262314327 )
( 0.002725319471 1.056356177e-05 9.770866745e-05 )
( 0.001890343148 5.481257631e-06 7.047117833e-05 )
( 0.001201773412 2.448736495e-06 4.62092903e-05 )
( 0.0006482132012 8.98446217e-07 2.551439502e-05 )
( 0.0002927156456 4.082168914e-07 1.173470264e-05 )
( 0.008815119974 0.0001030434214 0.0002608509385 )
( 0.008822866715 9.887585475e-05 0.0002621082822 )
( 0.007956269197 8.246008656e-05 0.0002339696512 )
( 0.007943596691 8.444704872e-05 0.0002325949899 )
( 0.0102659855 0.0001212493808 0.0003259196819 )
( 0.01026928425 0.0001164350542 0.0003264363622 )
( 0.009588854387 0.000104385872 0.0002948127221 )
( 0.009580310434 0.0001058466951 0.0002940382692 )
( 0.01028069295 0.0001089796569 0.0003279679513 )
( 0.01027730107 0.0001137822692 0.0003273759503 )
( 0.009563786909 0.0001124666742 0.0002922099084 )
( 0.009572534822 0.000110786983 0.0002930984192 )
( 0.00884224195 9.399816918e-05 0.0002645141794 )
( 0.008834978566 9.793401114e-05 0.0002634539851 )
( 0.007916818373 8.882347174e-05 0.00022991476 )
( 0.007930221036 8.665613132e-05 0.0002311952849 )
( 0.01217198372 4.182284101e-07 0.0004283520393 )
( 0.012146594 -1.553858601e-05 0.0004331333621 )
( 0.01264453493 -8.181414887e-05 0.0004440016055 )
( 0.01284335554 -0.0001679271227 0.0004333293764 )
( 0.01262667123 -9.905312618e-05 0.0004456334573 )
( 0.01183443516 3.013566311e-05 0.0004109324946 )
( 0.0118300356 3.869398643e-05 0.0004096536431 )
( 0.01184148621 5.385039185e-05 0.000405699946 )
( 0.01183230616 4.546651689e-05 0.0004081120132 )
( 0.01135564782 6.093635966e-05 0.0003767068847 )
( 0.0113554094 6.611000572e-05 0.0003767434973 )
( 0.01135132089 7.969250146e-05 0.0003765142756 )
( 0.01135588344 7.402389019e-05 0.0003765299625 )
( 0.01092733257 8.022776456e-05 0.0003588070977 )
( 0.01092534419 8.266947407e-05 0.0003588465624 )
( 0.0109190708 9.120663162e-05 0.000358675723 )
( 0.01092133671 8.864047413e-05 0.0003587130341 )
( 0.01090609562 0.0001055660541 0.0003576082527 )
( 0.01090865582 0.0001027119797 0.0003579130862 )
( 0.01091561001 9.358439274e-05 0.0003585062805 )
( 0.01091316435 9.629096894e-05 0.0003583418729 )
( 0.01030299626 9.600923659e-05 0.0003309499007 )
( 0.01029964071 0.0001003411453 0.0003302251862 )
( 0.01028848905 0.0001073285457 0.0003291954345 )
( 0.01029172447 0.0001027783146 0.0003294796334 )
( 0.006919157226 6.621013017e-05 0.0002046646841 )
( 0.005859238561 4.559111403e-05 0.0001804447384 )
( 0.004771073814 2.961651262e-05 0.000154764406 )
( 0.003710255958 1.809792775e-05 0.0001269638742 )
( 0.002738988493 1.033849549e-05 9.823472647e-05 )
( 0.001901118085 5.360456271e-06 7.088392886e-05 )
( 0.001209238777 2.396343689e-06 4.647935566e-05 )
( 0.0006524843629 8.775290894e-07 2.565666182e-05 )
( 0.0002947687753 3.922048677e-07 1.181896459e-05 )
( 0.007968989201 8.045139111e-05 0.0002353340678 )
( 0.007981270552 7.851931878e-05 0.000236672131 )
( 0.006965719163 6.160388875e-05 0.0002084181906 )
( 0.00695046084 6.306542491e-05 0.0002071173076 )
( 0.00959644001 9.985955694e-05 0.0002957854304 )
( 0.009604857303 9.847539332e-05 0.0002965271124 )
( 0.008882476948 8.408846043e-05 0.0002684219508 )
( 0.008874751627 8.797139162e-05 0.0002677025332 )
( 0.009620489553 9.259283979e-05 0.000298109313 )
( 0.009612112306 9.388363833e-05 0.0002970808418 )
( 0.008853715844 9.33270785e-05 0.0002656887518 )
( 0.008862111717 8.906915173e-05 0.0002666083165 )
( 0.008005171083 7.481217472e-05 0.0002389163856 )
( 0.007993523963 7.661844575e-05 0.0002378762147 )
( 0.006934941281 6.464135367e-05 0.0002058363752 )
( 0.01182500273 2.352202318e-05 0.0004135661875 )
( 0.01181725133 1.545680061e-05 0.0004159932723 )
( 0.01180590037 9.36818833e-06 0.0004181099648 )
( 0.01179613173 2.504558779e-06 0.0004203518911 )
( 0.0121277459 -3.168034527e-05 0.000436412869 )
( 0.01276486646 -0.0002015480131 0.0004388949019 )
( 0.01258555613 -0.0001189132236 0.0004492296139 )
( 0.01255332958 -0.0001328517974 0.0004526879056 )
( 0.01209943555 -4.666084715e-05 0.0004385850334 )
( 0.0113458978 3.638492853e-05 0.0003816281096 )
( 0.01134906709 4.095554687e-05 0.0003801432904 )
( 0.01135426294 5.294022412e-05 0.0003779313411 )
( 0.01134504564 4.846210504e-05 0.0003793403157 )
( 0.01094144769 5.760097338e-05 0.000357846875 )
( 0.010940657 5.965775199e-05 0.0003578997275 )
( 0.01093784906 6.678752106e-05 0.0003582729842 )
( 0.01093867049 6.48265559e-05 0.0003579776385 )
( 0.01093022805 7.816522702e-05 0.0003588390246 )
( 0.0109322723 7.575805648e-05 0.0003588999389 )
( 0.0109365331 6.829517952e-05 0.0003586495295 )
( 0.01093543693 7.02488469e-05 0.0003589859116 )
( 0.01034251414 7.339335571e-05 0.0003334096109 )
( 0.01034013368 7.712022489e-05 0.0003333867644 )
( 0.01033078879 8.28782795e-05 0.0003333779168 )
( 0.01033343002 7.894295413e-05 0.0003332401393 )
( 0.01031057816 9.438298002e-05 0.0003317143128 )
( 0.01031374186 9.021977894e-05 0.0003322556149 )
( 0.01032386348 8.411810268e-05 0.0003328952298 )
( 0.01032105647 8.810104919e-05 0.0003327023296 )
( 0.009650841355 8.175968833e-05 0.000301006221 )
( 0.009643090889 8.285455988e-05 0.0003006077313 )
( 0.009627752006 8.846057608e-05 0.0002991168294 )
( 0.009635779075 8.718567551e-05 0.0002996667172 )
( 0.005876238458 4.453011206e-05 0.0001815496944 )
( 0.00478802016 2.893205965e-05 0.0001556540665 )
( 0.003725630231 1.771847019e-05 0.0001274893002 )
( 0.002752376953 1.010886899e-05 9.868735651e-05 )
( 0.001911511528 5.250796676e-06 7.117495988e-05 )
( 0.001216353849 2.355280685e-06 4.662252104e-05 )
( 0.0006566347438 8.635454947e-07 2.576614861e-05 )
( 0.0002967409964 3.72100402e-07 1.187098496e-05 )
( 0.006980492733 6.015890176e-05 0.0002096514509 )
( 0.006995121948 5.872389011e-05 0.0002108738408 )
( 0.005893095396 4.347246067e-05 0.0001827279921 )
( 0.008894802071 8.333257574e-05 0.0002694021969 )
( 0.008902371861 7.946723781e-05 0.0002699283068 )
( 0.008052915335 6.747207226e-05 0.0002423259575 )
( 0.008041132241 6.923307956e-05 0.0002415961208 )
( 0.008921737783 7.484527305e-05 0.0002711343695 )
( 0.008914353326 7.859564357e-05 0.0002704829094 )
( 0.008016474545 7.317081327e-05 0.000239733723 )
( 0.008029092103 7.107536658e-05 0.0002408656583 )
( 0.00702321576 5.602075908e-05 0.0002127777407 )
( 0.007009538822 5.730363409e-05 0.0002119861892 )
( 0.01133956015 2.896781734e-05 0.0003842599108 )
( 0.01133458409 2.471883454e-05 0.0003861473524 )
( 0.01132577006 1.793578667e-05 0.0003887623025 )
( 0.01178213768 -2.608417162e-06 0.0004229682963 )
( 0.01131899469 1.34583097e-05 0.0003910273081 )