/*--------------------------------*- C++ -*----------------------------------*\
  =========                 |
  \\      /  F ield         | OpenFOAM: The Open Source CFD Toolbox
   \\    /   O peration     | Website:  https://openfoam.org
    \\  /    A nd           | Version:  8
     \\/     M anipulation  |
\*---------------------------------------------------------------------------*/






FoamFile
{
    version     2.0;
    format      ascii;
    class       volScalarField;
    location    "0";
    object      V;
}
// * * * * * * * * * * * * * * * * * * * * * * * * * * * * * * * * * * * * * //

dimensions      [0 3 0 0 0 0 0];


internalField   nonuniform List<scalar> 
23276
(
3.112167126e-06
3.850947388e-06
3.112269751e-06
4.765081188e-06
3.851094975e-06
3.112289877e-06
5.896178404e-06
4.765290069e-06
3.851141313e-06
3.112249253e-06
7.295716664e-06
5.896470545e-06
4.765375657e-06
3.851112784e-06
3.111893128e-06
9.027377838e-06
7.296121003e-06
5.896613306e-06
4.765368794e-06
3.850706276e-06
3.112160378e-06
1.116993653e-05
9.027933725e-06
7.296347058e-06
5.896643311e-06
4.764914175e-06
3.851040914e-06
3.112214503e-06
1.382083083e-05
1.117069717e-05
9.028279302e-06
7.296436236e-06
5.896149652e-06
4.765331031e-06
3.851120683e-06
3.112108753e-06
1.710057092e-05
1.382186656e-05
1.117121437e-05
9.028461663e-06
7.295925289e-06
5.896665827e-06
4.765446143e-06
3.851008485e-06
3.112158503e-06
2.115818472e-05
1.710197843e-05
1.382263126e-05
1.117154037e-05
9.027974438e-06
7.296558576e-06
5.896829045e-06
4.765332694e-06
3.851080316e-06
3.112367878e-06
2.179531981e-05
2.116009663e-05
1.71030969e-05
1.382317436e-05
1.117114879e-05
9.028743384e-06
7.296787425e-06
5.896724102e-06
4.765435244e-06
3.851342111e-06
3.112415503e-06
2.179758263e-05
2.461684749e-05
2.11617235e-05
1.710396795e-05
1.382300354e-05
1.117207044e-05
9.029061991e-06
7.296707581e-06
5.896868617e-06
4.765760442e-06
3.851409798e-06
3.112210878e-06
2.46200695e-05
2.179961447e-05
2.872015989e-05
2.116308501e-05
1.710422379e-05
1.382408707e-05
1.11725117e-05
9.029034148e-06
7.296909391e-06
5.897269729e-06
4.765855032e-06
3.851175587e-06
3.111934378e-06
2.462265529e-05
2.872256322e-05
2.180135718e-05
3.336511591e-05
2.116409797e-05
1.710546388e-05
1.382469568e-05
1.117257942e-05
9.029313388e-06
7.297400026e-06
5.897400661e-06
4.765592168e-06
3.850855503e-06
3.112119628e-06
2.462526127e-05
2.872817547e-05
3.339152031e-05
2.180296543e-05
0.0001012673178
2.116546455e-05
1.710630066e-05
1.382492757e-05
1.117296372e-05
9.029907999e-06
7.297579792e-06
5.897113948e-06
4.765227603e-06
3.851085839e-06
3.112234753e-06
2.462733869e-05
2.872998496e-05
3.337755169e-05
2.180441864e-05
0.0001120713801
0.0001013030478
2.116661372e-05
1.710680452e-05
1.3825455e-05
1.117367371e-05
9.030152073e-06
7.297279767e-06
5.896707743e-06
4.765511886e-06
3.851232396e-06
3.112051003e-06
2.462949675e-05
2.873468782e-05
3.340090588e-05
2.180579226e-05
0.0003203690148
0.0001121678979
0.0001013401336
2.116755667e-05
1.710752687e-05
1.382628663e-05
1.117400427e-05
9.029860909e-06
7.296842974e-06
5.897056236e-06
4.765697735e-06
3.851022877e-06
3.112136878e-06
2.463122225e-05
2.873606536e-05
3.338762994e-05
2.180701954e-05
0.0003206748582
0.0003428132214
0.0001121699311
0.0001013644407
3.340833479e-05
2.11685461e-05
1.710847591e-05
1.382673322e-05
1.117376149e-05
9.029417121e-06
7.297265456e-06
5.897289878e-06
4.765463442e-06
3.851134572e-06
3.112372253e-06
2.463303687e-05
2.874013098e-05
2.180817488e-05
0.0001122471822
0.0003208917901
0.0003431099706
0.0009386673236
3.341476571e-05
0.0001013915886
3.339638753e-05
2.116958653e-05
1.710907635e-05
1.382660487e-05
1.117335358e-05
9.029921445e-06
7.297557064e-06
5.897035362e-06
4.765607612e-06
3.851424471e-06
3.112266253e-06
2.463447195e-05
2.874119578e-05
2.180921662e-05
0.0001122421335
0.000321058779
0.0003434252202
0.0001123041789
0.0009403586174
3.340355366e-05
0.0001014084727
3.3419879e-05
2.117039214e-05
1.710917239e-05
1.382630986e-05
1.117394539e-05
9.030282104e-06
7.297292958e-06
5.897220419e-06
4.765961976e-06
3.851306919e-06
3.112280753e-06
2.463598755e-05
2.874465079e-05
2.181014342e-05
0.0001123451637
0.0003211829373
0.0003436182699
0.0001122951347
0.0009414354297
3.342436515e-05
0.0001014284944
3.34098775e-05
2.87454601e-05
2.117089015e-05
1.710912256e-05
1.382698671e-05
1.11743856e-05
9.030029102e-06
7.297528726e-06
5.897649496e-06
4.765835661e-06
3.851332868e-06
3.112095128e-06
2.463715632e-05
2.181091288e-05
0.0001123348871
0.0001014402573
0.0003212783458
0.0003437890086
0.0001123752397
0.0009421245573
0.0003439182187
3.341501331e-05
2.874905562e-05
3.342789087e-05
2.874845538e-05
2.11713011e-05
1.710986468e-05
1.382751618e-05
1.117418045e-05
9.030327063e-06
7.298041847e-06
5.897519497e-06
4.765877106e-06
3.851119657e-06
3.112066878e-06
2.463840038e-05
2.181164341e-05
0.0001014552258
3.343105392e-05
3.341961099e-05
0.0001123976981
0.0003213532628
0.0001123649502
0.0001014635724
0.0003441004284
0.0003440123033
0.0009425673962
2.87515933e-05
2.875204053e-05
2.117206386e-05
1.711048926e-05
1.382742033e-05
1.117455369e-05
9.030930896e-06
7.297917321e-06
5.897582562e-06
4.765636545e-06
3.85109405e-06
3.112097878e-06
2.463935562e-05
2.181235025e-05
3.342335996e-05
3.343354334e-05
2.875463758e-05
2.875428548e-05
0.000112388266
0.0001014810667
0.0003214107121
0.0001124149972
0.0001014749448
3.343581578e-05
3.342677134e-05
0.0003441527055
0.0009428527948
0.0003442122403
2.464041609e-05
2.11727793e-05
1.711060536e-05
1.382788336e-05
1.117524756e-05
9.030828697e-06
7.298010842e-06
5.897317708e-06
4.765617194e-06
3.851139306e-06
3.112154378e-06
2.181305666e-05
2.875657159e-05
2.875684202e-05
2.4642201e-05
2.464125826e-05
0.0001014900099
3.343929239e-05
3.343212972e-05
0.000112428703
0.0003214575062
0.0001124068282
0.0001014948006
3.342954636e-05
3.343759698e-05
2.875874587e-05
2.875854972e-05
0.0009430390242
0.0003442798957
0.0003442406319
0.0003214917763
2.11732738e-05
1.711117152e-05
1.382865432e-05
1.117519608e-05
9.030962818e-06
7.297729897e-06
5.89731022e-06
4.765681344e-06
3.851214421e-06
3.112193253e-06
2.18137196e-05
2.464294198e-05
2.46437656e-05
3.343428039e-05
3.344066863e-05
2.876179395e-05
2.87616672e-05
0.0001124216028
0.0001015059211
0.0001124392998
0.0001015020597
3.344203287e-05
3.343634746e-05
2.876020769e-05
2.876035402e-05
2.464508755e-05
2.46443958e-05
0.0009431657151
0.0003443221121
0.0003442954134
0.0003215384946
0.0003215194221
0.0001124471035
0.0001124330965
2.117395323e-05
1.711198407e-05
1.382869728e-05
1.117538485e-05
9.0306832e-06
7.297741559e-06
5.897398981e-06
4.765780539e-06
3.85126836e-06
3.112024003e-06
2.181437706e-05
2.181499378e-05
2.876294303e-05
2.876306221e-05
2.464720488e-05
2.464666882e-05
0.0001015117785
3.344424847e-05
3.343975614e-05
0.0001015147389
3.343808903e-05
3.344314758e-05
2.876422888e-05
2.876411416e-05
2.464560698e-05
2.464620278e-05
2.181603654e-05
2.181556426e-05
0.0009432580933
0.0003443520405
0.0003443320253
0.0003215667044
0.0003215548211
0.0001124559737
0.0001124474034
0.0001124414249
0.0001124523389
0.0001015211193
0.0001015191888
2.117473174e-05
1.71121926e-05
1.382896072e-05
1.117513653e-05
9.030725025e-06
7.297863278e-06
5.897528977e-06
4.765853739e-06
3.851073343e-06
3.111792128e-06
2.464761538e-05
2.464809751e-05
2.181775556e-05
2.181733891e-05
3.344115344e-05
3.344514838e-05
2.876611052e-05
2.876603756e-05
3.34460077e-05
3.344248225e-05
2.876514073e-05
2.876522751e-05
2.464891918e-05
2.464847878e-05
2.181648212e-05
2.181690229e-05
2.117571263e-05
2.117521862e-05
0.000344360181
0.0003443771299
0.0009433292346
0.0003215873621
0.0003215781848
0.0001124610008
0.0001124554928
0.0001124518228
0.0001124586739
0.0001015280448
0.0001015273963
0.0001015242006
0.0001015252673
3.344721788e-05
3.34444966e-05
3.344354162e-05
3.344664829e-05
1.711255485e-05
1.382879597e-05
1.117522663e-05
9.030890015e-06
7.298031664e-06
5.897627067e-06
4.765633134e-06
3.850804078e-06
3.112552253e-06
2.181813424e-05
2.181847292e-05
2.117749153e-05
2.117697398e-05
2.876681997e-05
2.876689382e-05
2.465008901e-05
2.464980982e-05
2.87675929e-05
2.876753531e-05
2.46492378e-05
2.464957631e-05
2.181925337e-05
2.181887175e-05
2.117603727e-05
2.117647457e-05
0.0003215972454
0.0003216065274
0.0003443851653
0.0009433833046
0.0003443998324
0.0001124646906
0.0001124610974
0.0001124585263
0.0001124629351
0.0001015322188
0.0001015316752
0.0001015296958
0.000101530265
3.344844925e-05
3.344681751e-05
3.34463468e-05
3.34481876e-05
3.344521833e-05
3.344760528e-05
3.344795129e-05
3.344586429e-05
2.876868074e-05
2.876865299e-05
2.876813574e-05
2.876817106e-05
1.711256312e-05
1.382895938e-05
1.11754472e-05
9.031105846e-06
7.29816235e-06
5.897383516e-06
4.765325432e-06
3.851717067e-06
3.112379503e-06
2.117795454e-05
2.117824073e-05
1.711364576e-05
1.711322107e-05
2.465030505e-05
2.465057269e-05
2.182012077e-05
2.181995963e-05
2.465100003e-05
2.465077252e-05
2.181959597e-05
2.181979128e-05
2.117957242e-05
2.117855585e-05
1.711283576e-05
0.0001124633608
0.0001124665201
0.0001124658812
0.0001124688633
0.0003216170445
0.0009434204612
0.0003444069572
0.0003444173075
0.0003216269381
0.0001015348591
0.0001015346063
0.0001015333722
0.0001015337681
3.344935809e-05
3.344835701e-05
3.344799463e-05
3.344913197e-05
3.344721931e-05
3.344867173e-05
3.344892422e-05
3.344763895e-05
2.877012965e-05
2.877009781e-05
2.876979541e-05
2.876980646e-05
2.876909277e-05
2.876911012e-05
2.876948361e-05
2.876947545e-05
2.465171783e-05
2.465151736e-05
2.465116015e-05
2.465135727e-05
1.382925211e-05
1.117572085e-05
9.031277961e-06
7.297902651e-06
5.897039522e-06
4.766411067e-06
3.851517113e-06
3.112279503e-06
1.711401395e-05
1.7114012e-05
1.382959552e-05
2.182031531e-05
2.182051852e-05
2.118047328e-05
2.118020709e-05
2.182084674e-05
2.18207038e-05
2.117988647e-05
2.118009513e-05
1.711554835e-05
1.711394817e-05
0.0001015355411
0.0001015358737
0.0001015366781
0.0001124688368
0.0001015373349
0.0001124716265
0.0009434437095
0.0003444261864
0.0003444211853
0.0003216364529
0.0003216435116
0.0001124745513
0.0001124720859
3.344959615e-05
3.344911226e-05
3.344903351e-05
3.344962341e-05
3.344865656e-05
3.344951928e-05
3.344962032e-05
3.344890188e-05
2.877131093e-05
2.877125349e-05
2.877098883e-05
2.877103619e-05
2.877040483e-05
2.877045408e-05
2.877076228e-05
2.877071467e-05
2.465303664e-05
2.465285828e-05
2.465254681e-05
2.465271282e-05
2.465188126e-05
2.465207504e-05
2.465240623e-05
2.465223001e-05
2.182138424e-05
2.182122355e-05
2.182096338e-05
2.182107741e-05
1.117594538e-05
9.031017638e-06
7.297530683e-06
5.898313622e-06
4.766183793e-06
3.851403097e-06
3.112097628e-06
1.382988487e-05
1.382972705e-05
2.118072631e-05
2.118106332e-05
1.711567659e-05
1.71154436e-05
2.118156804e-05
2.118144606e-05
1.711555235e-05
1.711557941e-05
1.383126106e-05
1.382946313e-05
3.344951094e-05
3.344912446e-05
3.344940167e-05
3.344910109e-05
3.344903203e-05
3.344928148e-05
0.0001015384087
3.344922796e-05
3.344900389e-05
0.0001015393115
0.0009434587444
0.0003444270213
0.0003444296797
0.0003216495686
0.000321648137
0.0001124772171
0.0001124751752
0.0001124791865
0.0001124777393
0.0001015414407
0.0001015404562
2.877157318e-05
2.877166085e-05
2.877170557e-05
2.877164172e-05
2.877150323e-05
2.877153619e-05
2.877164588e-05
2.877166655e-05
2.465426597e-05
2.465410647e-05
2.465383477e-05
2.465397156e-05
2.465320165e-05
2.46533911e-05
2.465371157e-05
2.465355096e-05
2.182267491e-05
2.182250065e-05
2.182220163e-05
2.182234533e-05
2.182155995e-05
2.182172941e-05
2.18220505e-05
2.182189742e-05
2.118211938e-05
2.118191238e-05
2.118162665e-05
2.118182068e-05
1.117571268e-05
9.030636518e-06
7.298999557e-06
5.898062062e-06
4.7660557e-06
3.851190586e-06
3.112138253e-06
1.711582167e-05
1.711613829e-05
1.383096167e-05
1.383076394e-05
1.711658211e-05
1.711662495e-05
1.383109854e-05
1.383102435e-05
1.117713748e-05
1.117535788e-05
2.87714163e-05
2.877154592e-05
2.877113707e-05
2.877132326e-05
2.877098968e-05
2.87707902e-05
3.344901021e-05
3.344920586e-05
2.877047492e-05
2.87706482e-05
3.344918889e-05
3.344902565e-05
0.0009434698211
0.0003444334866
0.0003444302593
0.0003216495754
0.0003216492749
0.0001124794699
0.0001124794482
0.000112479968
0.0001124792542
0.0001015435309
0.0001015425817
0.0001015450936
0.0001015444612
3.344922596e-05
3.344906661e-05
3.344902413e-05
3.344917426e-05
2.465444745e-05
2.465450878e-05
2.465459535e-05
2.465456566e-05
2.465440509e-05
2.465452217e-05
2.46546117e-05
2.465458359e-05
2.18239835e-05
2.182378407e-05
2.1823546e-05
2.182363666e-05
2.182287011e-05
2.182308277e-05
2.182344195e-05
2.182328861e-05
2.118327314e-05
2.11831879e-05
2.118290247e-05
2.118303086e-05
2.118236129e-05
2.11825017e-05
2.118284987e-05
2.118265361e-05
1.71168505e-05
1.711664422e-05
1.711647021e-05
1.711669407e-05
9.032285987e-06
7.298730284e-06
5.897921295e-06
4.765811131e-06
3.851242867e-06
3.112115878e-06
1.383103815e-05
1.383132091e-05
1.117662287e-05
1.117645905e-05
1.383169916e-05
1.383182751e-05
1.117689468e-05
1.117677057e-05
2.465422708e-05
2.465435498e-05
2.465376599e-05
2.465402318e-05
2.465346979e-05
2.465316874e-05
2.877034637e-05
2.877017476e-05
2.46525973e-05
2.465287311e-05
2.876983247e-05
2.877002444e-05
0.0003444375557
0.00034443474
0.000321652739
0.0003216504305
0.000112478565
0.0001124783886
0.0001124779096
0.0001124777191
0.0001015448573
0.0001015454879
0.0001015456807
0.0001015455777
3.344943593e-05
3.344928964e-05
3.344916079e-05
3.344932314e-05
3.344963679e-05
3.344953749e-05
3.344941395e-05
3.344953865e-05
2.876927922e-05
2.876938735e-05
2.876966783e-05
2.876949993e-05
2.182402718e-05
2.182414503e-05
2.182429207e-05
2.182422464e-05
2.182417429e-05
2.182430741e-05
2.182434122e-05
2.182435561e-05
2.118461111e-05
2.1184272e-05
2.11842141e-05
2.118411862e-05
2.118351068e-05
2.118379748e-05
2.118424667e-05
2.118402312e-05
1.71175984e-05
1.711766146e-05
1.711741726e-05
1.711751131e-05
1.7117126e-05
1.711717818e-05
1.711751109e-05
1.711727745e-05
1.383179177e-05
1.383160077e-05
1.383150227e-05
1.383172568e-05
9.032014559e-06
7.298582747e-06
5.897645218e-06
4.765877934e-06
3.851220187e-06
3.112191003e-06
1.117665621e-05
1.117690106e-05
9.031683894e-06
9.031551131e-06
1.11772163e-05
1.117738273e-05
9.031870395e-06
2.182383294e-05
2.182397815e-05
2.182316205e-05
2.182357364e-05
2.182272738e-05
2.182232976e-05
2.465232673e-05
2.465204676e-05
2.182151812e-05
2.182190359e-05
2.465137606e-05
2.465172484e-05
0.0003216580957
0.0003216557435
0.0001124799142
0.000112478924
0.0001124777968
0.000112478498
0.0001015441159
0.0001015433732
0.0001015427783
0.000101542948
3.344948384e-05
3.344960462e-05
3.34497192e-05
3.34497613e-05
3.344979139e-05
3.344974899e-05
3.344964866e-05
3.344972523e-05
2.876905406e-05
2.87691065e-05
2.876921764e-05
2.876914961e-05
2.876899273e-05
2.876899128e-05
2.876902353e-05
2.876899453e-05
2.46502471e-05
2.465045914e-05
2.465102538e-05
2.465071609e-05
2.118426855e-05
2.118443421e-05
2.118467718e-05
2.11846397e-05
2.11848844e-05
2.11850088e-05
2.118485801e-05
2.118505286e-05
1.711871215e-05
1.711824322e-05
1.711844952e-05
1.711810751e-05
1.711785267e-05
1.711817807e-05
1.711866345e-05
1.71183704e-05
1.383225324e-05
1.383239304e-05
1.383219251e-05
1.383225902e-05
1.383206353e-05
1.383206286e-05
1.383236019e-05
1.38321252e-05
1.11772024e-05
1.117703471e-05
1.117698551e-05
1.117719234e-05
7.298279261e-06
5.897730251e-06
4.765856641e-06
3.851313706e-06
3.112379753e-06
9.031691475e-06
9.031898558e-06
7.29838624e-06
9.032156653e-06
9.032333851e-06
2.118453288e-05
2.118396689e-05
2.118300203e-05
2.11838476e-05
2.118265957e-05
2.118203086e-05
2.182119331e-05
2.182085989e-05
2.118099507e-05
2.11816328e-05
2.181985093e-05
2.182041552e-05
0.0001124826154
0.0001124820035
0.0001124805619
0.0001124814779
0.0001015450292
0.0001015441645
0.0001015429828
0.0001015434359
3.344934364e-05
3.344920785e-05
3.344901248e-05
3.344913528e-05
3.344895254e-05
3.344902882e-05
3.344902802e-05
3.344893061e-05
2.876908985e-05
2.876918677e-05
2.87692564e-05
2.876926501e-05
2.876921569e-05
2.876913938e-05
2.87690204e-05
2.876906394e-05
2.464960102e-05
2.464974894e-05
2.465006765e-05
2.464990774e-05
2.46492585e-05
2.464929614e-05
2.464946544e-05
2.464936458e-05
2.181820955e-05
2.181851492e-05
2.18193056e-05
2.181887115e-05
1.711834363e-05
1.711843167e-05
1.711858107e-05
1.711869044e-05
1.711903954e-05
1.711912714e-05
1.711884298e-05
1.711920249e-05
1.383315956e-05
1.383265311e-05
1.383298936e-05
1.383253842e-05
1.383249685e-05
1.383281827e-05
1.383328548e-05
1.383297897e-05
1.117746474e-05
1.117763739e-05
1.117747817e-05
1.117752288e-05
1.117745225e-05
1.117742157e-05
1.117767575e-05
1.117745795e-05
9.032081688e-06
9.031939377e-06
9.031922412e-06
9.032104971e-06
5.897712994e-06
4.765972287e-06
3.851542331e-06
3.112273253e-06
7.298377888e-06
7.298550341e-06
7.298759295e-06
7.298930837e-06
1.711945259e-05
1.711777683e-05
1.711724577e-05
1.711838406e-05
1.711733132e-05
1.711664245e-05
2.118064705e-05
2.118074267e-05
1.711582733e-05
1.711656018e-05
2.117906102e-05
2.11801594e-05
0.000101548122
0.0001015475514
0.0001015459643
0.0001015468111
3.344971595e-05
3.344969275e-05
3.344942505e-05
3.344942145e-05
3.344910741e-05
3.344904217e-05
3.344919438e-05
3.344923386e-05
2.876899452e-05
2.876893264e-05
2.876889218e-05
2.876889544e-05
2.876904959e-05
2.876898682e-05
2.876890193e-05
2.876894767e-05
2.464960353e-05
2.464969187e-05
2.464975038e-05
2.464970639e-05
2.464955814e-05
2.464939461e-05
2.464924859e-05
2.464928222e-05
2.181717556e-05
2.181746307e-05
2.181795111e-05
2.18177155e-05
2.181651596e-05
2.181659441e-05
2.181692435e-05
2.181673867e-05
2.117706066e-05
2.117748291e-05
2.117830534e-05
2.117788504e-05
1.383280432e-05
1.383284401e-05
1.383293124e-05
1.383311192e-05
1.38334919e-05
1.38335539e-05
1.383321754e-05
1.383364079e-05
1.11781883e-05
1.117769668e-05
1.117808158e-05
1.117760217e-05
1.117768433e-05
1.117798006e-05
1.117840386e-05
1.117811106e-05
9.032207276e-06
9.032387371e-06
9.0322639e-06
9.032293096e-06
9.032301885e-06
9.032256028e-06
9.032466479e-06
9.032274475e-06
7.298652212e-06
7.298533775e-06
7.298537556e-06
7.298694046e-06
5.897855055e-06
4.766246785e-06
3.851418692e-06
3.112141378e-06
5.898022555e-06
5.898180523e-06
1.383429286e-05
1.383213973e-05
1.383188536e-05
1.383309842e-05
1.383219725e-05
1.383152892e-05
1.711563922e-05
1.711651277e-05
1.383089848e-05
1.383162533e-05
1.711454018e-05
1.711600673e-05
3.34509161e-05
3.345086294e-05
3.345059207e-05
3.345063928e-05
3.344999836e-05
3.345003764e-05
3.345034686e-05
3.345030409e-05
2.876950549e-05
2.876938776e-05
2.876922769e-05
2.876931121e-05
2.876908447e-05
2.876912955e-05
2.8769191e-05
2.876914637e-05
2.46495571e-05
2.464956598e-05
2.464968505e-05
2.464961596e-05
2.465006586e-05
2.464997709e-05
2.464977285e-05
2.464987558e-05
2.181678708e-05
2.181699548e-05
2.181726318e-05
2.181718523e-05
2.181682867e-05
2.181645563e-05
2.181643919e-05
2.181637534e-05
2.117573334e-05
2.117621456e-05
2.117676266e-05
2.117657041e-05
2.117437702e-05
2.117487055e-05
2.117515856e-05
2.117500181e-05
1.711313004e-05
1.711348925e-05
1.711384278e-05
1.71137131e-05
1.117786698e-05
1.117787675e-05
1.117792287e-05
1.117812997e-05
1.117850039e-05
1.11785443e-05
1.117820244e-05
1.117863104e-05
9.032775788e-06
9.032326456e-06
9.032712984e-06
9.032248604e-06
9.03239802e-06
9.032659202e-06
9.033028869e-06
9.032763803e-06
7.298685593e-06
7.298858967e-06
7.298765709e-06
7.298783127e-06
7.298840811e-06
7.298788178e-06
7.298958827e-06
7.298794834e-06
5.897901987e-06
5.897804915e-06
5.897821199e-06
5.897952518e-06
4.766105402e-06
3.85126457e-06
3.112213253e-06
1.117946231e-05
1.117719756e-05
1.117711661e-05
1.117828487e-05
1.117753204e-05
1.117692374e-05
1.383081561e-05
1.38320483e-05
1.11764443e-05
1.117711443e-05
1.383006947e-05
1.38316252e-05
2.87705825e-05
2.877041794e-05
2.877012216e-05
2.877027336e-05
2.876960963e-05
2.876974307e-05
2.876999604e-05
2.876985619e-05
2.46501674e-05
2.465011316e-05
2.465006347e-05
2.46500748e-05
2.46501202e-05
2.465013006e-05
2.465007528e-05
2.465010781e-05
2.18167596e-05
2.181685342e-05
2.181707759e-05
2.181696699e-05
2.181772498e-05
2.181757872e-05
2.181723647e-05
2.181739127e-05
2.117395016e-05
2.117453477e-05
2.117565532e-05
2.117635985e-05
2.117441304e-05
2.117356715e-05
2.117456812e-05
2.117427297e-05
1.711229919e-05
1.711278095e-05
1.711298488e-05
1.711305336e-05
1.71108319e-05
1.711171462e-05
1.711152425e-05
1.711162204e-05
1.38290928e-05
1.382938873e-05
1.382945582e-05
1.382949626e-05
9.032496382e-06
9.032488461e-06
9.032507848e-06
9.03271588e-06
9.033056269e-06
9.033087098e-06
9.032765092e-06
9.033167994e-06
7.299126059e-06
7.298729695e-06
7.299093083e-06
7.298666466e-06
7.298846954e-06
7.299071269e-06
7.299385535e-06
7.299154197e-06
5.897874905e-06
5.898034157e-06
5.897965744e-06
5.897974338e-06
5.898059941e-06
5.89800624e-06
5.898142242e-06
5.898004705e-06
4.765982957e-06
4.765904183e-06
4.765927628e-06
4.766036148e-06
3.851353276e-06
3.112113503e-06
9.034046853e-06
9.031871345e-06
9.031896116e-06
9.03295945e-06
9.032342074e-06
9.03181025e-06
1.117642916e-05
1.11777751e-05
9.031451772e-06
9.03204168e-06
1.117593737e-05
1.117743076e-05
2.465112326e-05
2.465094542e-05
2.465063487e-05
2.465077764e-05
2.465024016e-05
2.465032046e-05
2.465051258e-05
2.465041169e-05
2.181759267e-05
2.181757246e-05
2.181755656e-05
2.181755108e-05
2.181782122e-05
2.181782115e-05
2.181762113e-05
2.181772138e-05
2.11740178e-05
2.117423279e-05
2.117436244e-05
2.11743257e-05
2.117538971e-05
2.117492867e-05
2.11744554e-05
2.117495453e-05
1.711043608e-05
1.711125311e-05
1.711316619e-05
1.711485968e-05
1.711089748e-05
1.710953654e-05
1.711159107e-05
1.711119548e-05
1.382860341e-05
1.382904779e-05
1.382904501e-05
1.382925291e-05
1.382719157e-05
1.382821763e-05
1.382777963e-05
1.382800895e-05
1.117527794e-05
1.117551491e-05
1.117541446e-05
1.117554835e-05
7.298889916e-06
7.298871306e-06
7.298873988e-06
7.299069392e-06
7.299371172e-06
7.299392338e-06
7.29910221e-06
7.299464689e-06
5.898211963e-06
5.897869998e-06
5.898198732e-06
5.897819597e-06
5.898009004e-06
5.898197657e-06
5.898460364e-06
5.898262895e-06
4.765917959e-06
4.766060225e-06
4.766011306e-06
4.766013641e-06
4.766113162e-06
4.766061712e-06
4.766168348e-06
4.766054888e-06
3.85130077e-06
3.851237618e-06
3.112163503e-06
7.300316725e-06
7.298331242e-06
7.298417381e-06
7.299351618e-06
7.298852488e-06
7.29839986e-06
9.031477799e-06
9.032799904e-06
7.298136526e-06
7.29864088e-06
9.031168405e-06
9.03252436e-06
2.181848575e-05
2.1818297e-05
2.181794564e-05
2.181810763e-05
2.181763501e-05
2.181771338e-05
2.181784246e-05
2.181778111e-05
2.117524866e-05
2.11752782e-05
2.117502533e-05
2.117519136e-05
2.117566936e-05
2.117548979e-05
2.117514044e-05
2.117543449e-05
1.711073605e-05
1.711112095e-05
1.711110824e-05
1.711118211e-05
1.711229976e-05
1.711151093e-05
1.711105185e-05
1.711195052e-05
1.382684226e-05
1.382772933e-05
1.382993459e-05
1.383203887e-05
1.382727572e-05
1.382573239e-05
1.382820212e-05
1.382778272e-05
1.117502011e-05
1.11754116e-05
1.117528965e-05
1.117556253e-05
1.117374492e-05
1.117477521e-05
1.117422888e-05
1.117451679e-05
9.030739308e-06
9.030924351e-06
9.030732719e-06
9.03091217e-06
5.898016084e-06
5.897991896e-06
5.897984516e-06
5.898160214e-06
5.898421398e-06
5.898436185e-06
5.898181814e-06
5.89849863e-06
4.766172793e-06
4.765882583e-06
4.766172365e-06
4.765842989e-06
4.766027974e-06
4.766184482e-06
4.766400794e-06
4.766235197e-06
3.851214026e-06
3.851338719e-06
3.851304799e-06
3.851302804e-06
3.851407132e-06
3.851359506e-06
3.851441959e-06
3.851349633e-06
3.112249628e-06
5.899285423e-06
5.897530794e-06
5.897649094e-06
5.898451123e-06
5.898052327e-06
5.897673539e-06
7.298186708e-06
7.299411985e-06
5.897484392e-06
5.897907439e-06
7.298006323e-06
7.299195622e-06
2.117617961e-05
2.117611243e-05
2.117551083e-05
2.117592073e-05
2.11752858e-05
2.117544576e-05
2.117550924e-05
2.117566021e-05
1.711191176e-05
1.711204928e-05
1.711157547e-05
1.711192757e-05
1.711274333e-05
1.711228086e-05
1.711176508e-05
1.711230635e-05
1.382724237e-05
1.382768905e-05
1.382759718e-05
1.382772613e-05
1.382878878e-05
1.382788046e-05
1.382746253e-05
1.382851126e-05
1.117344649e-05
1.117431298e-05
1.117652641e-05
1.117870882e-05
1.1173839e-05
1.117230161e-05
1.11748232e-05
1.117442075e-05
9.030636438e-06
9.030970244e-06
9.030785468e-06
9.031078415e-06
9.02952827e-06
9.030490372e-06
9.02991771e-06
9.030220228e-06
7.297742294e-06
7.297883959e-06
7.297649515e-06
7.297844789e-06
4.766012136e-06
4.765986343e-06
4.765973052e-06
4.766126918e-06
4.766348917e-06
4.76635937e-06
4.766140599e-06
4.766412281e-06
3.851404078e-06
3.851160983e-06
3.851411716e-06
3.851130212e-06
3.851303336e-06
3.851431849e-06
3.851608039e-06
3.851470903e-06
3.112066003e-06
3.112173878e-06
3.112151378e-06
3.112146753e-06
3.112206753e-06
3.112269503e-06
3.112195253e-06
4.767116776e-06
4.765599347e-06
4.765731226e-06
4.766408576e-06
4.766092663e-06
4.765780639e-06
5.89754732e-06
5.898643412e-06
4.765648047e-06
4.765997061e-06
5.897456886e-06
5.898475805e-06
1.711249173e-05
1.711265411e-05
1.711184837e-05
1.711253107e-05
1.711189835e-05
1.711210771e-05
1.711202028e-05
1.711248039e-05
1.382829489e-05
1.382848009e-05
1.382792054e-05
1.382834898e-05
1.382928919e-05
1.382870675e-05
1.382813737e-05
1.382877408e-05
1.117387034e-05
1.11743185e-05
1.117418638e-05
1.117433802e-05
1.117529375e-05
1.117438395e-05
1.117401816e-05
1.117507422e-05
9.029278753e-06
9.030078506e-06
9.032150127e-06
9.034228842e-06
9.029626429e-06
9.028193779e-06
9.030572619e-06
9.030207296e-06
7.297740573e-06
7.298018875e-06
7.297807197e-06
7.298094837e-06
7.29680309e-06
7.297663542e-06
7.297110893e-06
7.29740272e-06
5.897309665e-06
5.897416366e-06
5.897168731e-06
5.897362174e-06
3.851274042e-06
3.851248307e-06
3.851231799e-06
3.851364505e-06
3.851550882e-06
3.851557967e-06
3.851372662e-06
3.851602393e-06
3.112205878e-06
3.112004128e-06
3.112218378e-06
3.111980253e-06
3.112138128e-06
3.112242628e-06
3.112385003e-06
3.112272503e-06
3.85222008e-06
3.850927822e-06
3.851061853e-06
3.851626652e-06
3.851378508e-06
3.851124512e-06
4.765715829e-06
4.766673789e-06
3.851034356e-06
3.851318922e-06
4.765686893e-06
4.766545529e-06
1.382864042e-05
1.382891617e-05
1.382806068e-05
1.382883973e-05
1.382825618e-05
1.382847622e-05
1.3828314e-05
1.38289074e-05
1.117477493e-05
1.117497369e-05
1.117440568e-05
1.11748462e-05
1.11757895e-05
1.117518294e-05
1.117462242e-05
1.117526701e-05
9.029685435e-06
9.030103181e-06
9.029955459e-06
9.030110531e-06
9.030940219e-06
9.030090853e-06
9.029779483e-06
9.030768063e-06
7.296597936e-06
7.297309987e-06
7.299170237e-06
7.301055768e-06
7.296901205e-06
7.295618126e-06
7.297761331e-06
7.297440736e-06
5.897371671e-06
5.897599916e-06
5.897383218e-06
5.897651583e-06
5.896593684e-06
5.897341637e-06
5.896833301e-06
5.897101724e-06
4.765620975e-06
4.765699963e-06
4.765456877e-06
4.765638933e-06
3.112101628e-06
3.112076878e-06
3.112059378e-06
3.112172128e-06
3.112327253e-06
3.112331878e-06
3.112176503e-06
3.112368878e-06
3.112902378e-06
3.111814253e-06
3.111943503e-06
3.112410253e-06
3.112216628e-06
3.112011503e-06
3.851102502e-06
3.851925697e-06
3.111953003e-06
3.112183128e-06
3.851114323e-06
3.851829093e-06
1.117496586e-05
1.11752853e-05
1.117446337e-05
1.117524029e-05
1.117472651e-05
1.11749369e-05
1.117474439e-05
1.117536932e-05
9.030442007e-06
9.030634669e-06
9.030099811e-06
9.030516764e-06
9.031400173e-06
9.030821223e-06
9.030301993e-06
9.030907343e-06
7.29696731e-06
7.297339261e-06
7.297191167e-06
7.297338964e-06
7.298042005e-06
7.29728158e-06
7.297021309e-06
7.297907744e-06
5.896427175e-06
5.897046517e-06
5.898671809e-06
5.900330236e-06
5.896688373e-06
5.895569167e-06
5.897443824e-06
5.89716922e-06
4.765720998e-06
4.765905852e-06
4.765696718e-06
4.765938792e-06
4.765084419e-06
4.765722168e-06
4.765267806e-06
4.765507802e-06
3.851103776e-06
3.851160517e-06
3.850932132e-06
3.851098347e-06
3.112018503e-06
3.112717753e-06
3.112056378e-06
3.112645753e-06
9.03053146e-06
9.030854598e-06
9.030107715e-06
9.030830705e-06
9.030391207e-06
9.030582806e-06
9.03038557e-06
9.030986681e-06
7.297587595e-06
7.297763336e-06
7.297281846e-06
7.297658685e-06
7.298452262e-06
7.29792556e-06
7.29746209e-06
7.2980075e-06
5.896751242e-06
5.897073195e-06
5.89693246e-06
5.897067927e-06
5.897653373e-06
5.896991098e-06
5.896776389e-06
5.897549022e-06
4.764950628e-06
4.765480488e-06
4.766874119e-06
4.768302706e-06
4.765173399e-06
4.764215051e-06
4.765821758e-06
4.765590556e-06
3.851223697e-06
3.851371862e-06
3.851177226e-06
3.851391204e-06
3.850708629e-06
3.851244741e-06
3.850846843e-06
3.851057119e-06
3.112082253e-06
3.112121878e-06
3.111913253e-06
3.112061378e-06
7.297611613e-06
7.297916491e-06
7.297261054e-06
7.29790638e-06
7.297537987e-06
7.297706768e-06
7.297519297e-06
7.298068943e-06
5.897251674e-06
5.897406797e-06
5.896985234e-06
5.89731607e-06
5.898009445e-06
5.897545265e-06
5.89714214e-06
5.897619556e-06
4.765228194e-06
4.765501816e-06
4.765372591e-06
4.765493106e-06
4.765974658e-06
4.765408522e-06
4.765233384e-06
4.765893683e-06
3.850601901e-06
3.851049795e-06
3.852229229e-06
3.853441347e-06
3.850790754e-06
3.849980783e-06
3.851338193e-06
3.851145545e-06
3.112209878e-06
3.112327628e-06
3.112150878e-06
3.112337378e-06
3.111796878e-06
3.112243003e-06
3.111899753e-06
3.112081003e-06
5.897235371e-06
5.897511165e-06
5.89694929e-06
5.897509947e-06
5.897206089e-06
5.897351364e-06
5.897180721e-06
5.897666566e-06
4.76562655e-06
4.765760973e-06
4.76539866e-06
4.765683256e-06
4.766278017e-06
4.765877684e-06
4.765533025e-06
4.765942529e-06
3.850835942e-06
3.851064987e-06
3.850949121e-06
3.851054507e-06
3.851446455e-06
3.850969209e-06
3.850827598e-06
3.851384037e-06
3.111712253e-06
3.112087753e-06
3.113076003e-06
3.114093253e-06
3.111871753e-06
3.111193628e-06
3.112328378e-06
3.112169378e-06
4.765586631e-06
4.765829834e-06
4.765356073e-06
4.765834092e-06
4.765586616e-06
4.765709484e-06
4.765558402e-06
4.765978765e-06
3.851149571e-06
3.85126398e-06
3.850956948e-06
3.851198547e-06
3.851701899e-06
3.851361408e-06
3.851070559e-06