/*--------------------------------*- C++ -*----------------------------------*\
  =========                 |
  \\      /  F ield         | OpenFOAM: The Open Source CFD Toolbox
   \\    /   O peration     | Website:  https://openfoam.org
    \\  /    A nd           | Version:  8
     \\/     M anipulation  |
\*---------------------------------------------------------------------------*/






FoamFile
{
    version     2.0;
    format      ascii;
    class       volSymmTensorField;
    location    "0";
    object      TauDDES;
}
// * * * * * * * * * * * * * * * * * * * * * * * * * * * * * * * * * * * * * //

dimensions      [0 2 -2 0 0 0 0];


internalField   nonuniform List<symmTensor>
15853
(
( 7.863768587e-06 -6.264830972e-06 2.494260514e-07 7.461298082e-06 -2.464465183e-07 1.182571759e-05 )
( 8.210224223e-06 -6.148043212e-06 2.318372054e-07 7.90618833e-06 -2.369234267e-07 1.247715682e-05 )
( 7.533703865e-06 -6.216882412e-06 2.428734263e-07 7.178239684e-06 -2.495310127e-07 1.156308645e-05 )
( 8.53911115e-06 -5.80195956e-06 1.910977687e-07 8.510271073e-06 -2.080662966e-07 1.316193084e-05 )
( 7.801182619e-06 -6.195035439e-06 2.335041103e-07 7.468132935e-06 -2.462613224e-07 1.203758529e-05 )
( 7.154726063e-06 -6.063321962e-06 2.285135139e-07 6.840342849e-06 -2.394483545e-07 1.109284767e-05 )
( 7.169578112e-06 -6.080292223e-06 2.347636041e-07 6.823915101e-06 -2.406031854e-07 1.09901539e-05 )
( 8.713838724e-06 -5.474116733e-06 1.473810158e-07 8.974670891e-06 -1.76068113e-07 1.372931001e-05 )
( 8.185743354e-06 -6.023374681e-06 2.026645092e-07 8.022329894e-06 -2.299935318e-07 1.282969788e-05 )
( 7.524436569e-06 -6.168105756e-06 2.243380521e-07 7.20566095e-06 -2.432664985e-07 1.183129643e-05 )
( 6.255485459e-06 -5.546687589e-06 1.933684644e-07 5.944055829e-06 -2.018970093e-07 9.742434486e-06 )
( 7.115618246e-06 -6.032192232e-06 2.217919786e-07 6.815188499e-06 -2.373720918e-07 1.118694945e-05 )
( 6.272993232e-06 -5.55703582e-06 1.965622829e-07 5.935407444e-06 -2.037680105e-07 9.667566701e-06 )
( 8.745517334e-06 -5.214616067e-06 1.193969155e-07 9.289720765e-06 -1.517531416e-07 1.415022962e-05 )
( 8.463963241e-06 -5.687819794e-06 1.610953291e-07 8.581958355e-06 -1.95260526e-07 1.350383081e-05 )
( 7.781823115e-06 -6.102929092e-06 2.087093947e-07 7.53026552e-06 -2.342352161e-07 1.237447032e-05 )
( 7.096269655e-06 -6.011516234e-06 2.147346123e-07 6.827121524e-06 -2.351703756e-07 1.128963595e-05 )
( 5.266390872e-06 -4.82505402e-06 1.499204814e-07 4.985025498e-06 -1.551840114e-07 8.279880603e-06 )
( 6.237417892e-06 -5.525180768e-06 1.858065275e-07 5.947532827e-06 -1.980755826e-07 9.851188224e-06 )
( 5.264962056e-06 -4.819867627e-06 1.536807446e-07 4.956356861e-06 -1.57686685e-07 8.193119356e-06 )
( 9.320701793e-06 -4.606571565e-06 9.615459362e-08 1.059362148e-05 -8.326168199e-08 1.509258982e-05 )
( 8.572767911e-06 -5.258034435e-06 1.208413778e-07 9.115293324e-06 -1.491001882e-07 1.430021075e-05 )
( 8.391470146e-06 -5.605126262e-06 1.520027126e-07 8.605432413e-06 -1.891517627e-07 1.370587051e-05 )
( 8.162499398e-06 -5.965191576e-06 1.885625096e-07 8.025642273e-06 -2.22071435e-07 1.308801984e-05 )
( 7.494725651e-06 -6.067407412e-06 2.082597064e-07 7.26705548e-06 -2.390569307e-07 1.214085023e-05 )
( 7.048586667e-06 -5.956242148e-06 2.038156595e-07 6.841129562e-06 -2.314338445e-07 1.144421276e-05 )
( 6.224977369e-06 -5.516949386e-06 1.793915061e-07 5.954558219e-06 -1.956795757e-07 9.934455193e-06 )
( 4.283980161e-06 -4.004201855e-06 1.123552309e-07 4.049566996e-06 -1.150710389e-07 6.788469364e-06 )
( 5.236805464e-06 -4.807047844e-06 1.452328462e-07 4.97712108e-06 -1.533363445e-07 8.34686216e-06 )
( 4.275901119e-06 -3.989728611e-06 1.150332452e-07 4.019296284e-06 -1.163918171e-07 6.715343261e-06 )
( 9.97868483e-06 -4.426005034e-06 1.257214137e-07 1.165016965e-05 -4.885453109e-08 1.588721534e-05 )
( 8.663947483e-06 -4.984321095e-06 1.138853918e-07 9.495251106e-06 -1.119350657e-07 1.477371188e-05 )
( 8.294548024e-06 -5.456044619e-06 1.435697641e-07 8.669557246e-06 -1.674843162e-07 1.406631964e-05 )
( 8.042550689e-06 -5.823200354e-06 1.788865802e-07 8.075458027e-06 -2.165831887e-07 1.337072536e-05 )
( 7.756828381e-06 -6.030586974e-06 1.987485092e-07 7.569372883e-06 -2.304519313e-07 1.262994101e-05 )
( 7.02827856e-06 -5.932507975e-06 1.960922873e-07 6.85604482e-06 -2.266246071e-07 1.155793871e-05 )
( 6.19072307e-06 -5.487818271e-06 1.685717166e-07 5.96975724e-06 -1.917351682e-07 1.007908395e-05 )
( 5.246279215e-06 -4.815684406e-06 1.382338866e-07 5.004990726e-06 -1.505325287e-07 8.44099668e-06 )
( 3.299431228e-06 -3.125805961e-06 7.851586759e-08 3.116309927e-06 -7.998522733e-08 5.230051102e-06 )
( 4.281427664e-06 -4.006253675e-06 1.0770313e-07 4.062191238e-06 -1.133523071e-07 6.856211257e-06 )
( 3.285071898e-06 -3.106241593e-06 8.108590777e-08 3.086695642e-06 -8.146385966e-08 5.174206308e-06 )
( 1.159329713e-05 -4.742722012e-06 1.970276173e-07 1.345017699e-05 -7.68390862e-09 1.740306107e-05 )
( 9.58045166e-06 -4.500591331e-06 1.267286365e-07 1.107633216e-05 -4.121415742e-08 1.590096508e-05 )
( 8.236930626e-06 -5.352007065e-06 1.464376282e-07 8.71197517e-06 -1.520426167e-07 1.429547137e-05 )
( 8.482554222e-06 -4.987014108e-06 1.286154401e-07 9.306474567e-06 -1.063106154e-07 1.494164644e-05 )
( 7.881126294e-06 -5.741499081e-06 1.722758043e-07 7.981488125e-06 -1.927278532e-07 1.353974767e-05 )
( 7.546467714e-06 -5.915797374e-06 1.882661138e-07 7.479839041e-06 -2.15279357e-07 1.281151708e-05 )
( 7.402613846e-06 -6.013102848e-06 1.965818228e-07 7.225853551e-06 -2.264311121e-07 1.233341391e-05 )
( 6.172728718e-06 -5.476832939e-06 1.636348372e-07 5.979492016e-06 -1.874945923e-07 1.017011436e-05 )
( 6.969917195e-06 -5.895264621e-06 1.896170687e-07 6.818277598e-06 -2.183960248e-07 1.164812602e-05 )
( 5.230360784e-06 -4.80532799e-06 1.305537154e-07 5.016239356e-06 -1.469321518e-07 8.551524843e-06 )
( 4.289137905e-06 -4.017776064e-06 1.024148375e-07 4.08539654e-06 -1.117158916e-07 6.927613867e-06 )
( 2.349508122e-06 -2.24784867e-06 5.063280639e-08 2.218759846e-06 -5.17134211e-08 3.691585334e-06 )
( 3.30613193e-06 -3.136000487e-06 7.507033217e-08 3.133224709e-06 -7.878958286e-08 5.28089322e-06 )
( 2.332620625e-06 -2.227784762e-06 5.255099111e-08 2.193327418e-06 -5.281454918e-08 3.653198064e-06 )
( 9.83850623e-06 -4.326630915e-06 1.635833371e-07 1.156791677e-05 -1.269429717e-08 1.676147076e-05 )
( 1.773229633e-05 -6.84045699e-06 2.60372218e-07 1.860633347e-05 5.050762297e-08 2.059842154e-05 )
( 1.114965107e-05 -4.439904842e-06 2.146316405e-07 1.303899626e-05 -1.033227504e-09 1.779457671e-05 )
( 8.6595619e-06 -4.706818345e-06 1.372739007e-07 9.763536582e-06 -7.044994277e-08 1.548571163e-05 )
( 7.856547199e-06 -5.549697562e-06 1.711825064e-07 8.148934285e-06 -1.76984372e-07 1.399485882e-05 )
( 8.181325938e-06 -5.174874786e-06 1.53936881e-07 8.818669812e-06 -1.290535465e-07 1.470869938e-05 )
( 7.46306614e-06 -5.812099516e-06 1.795936981e-07 7.503146207e-06 -1.956854874e-07 1.308707033e-05 )
( 7.209566775e-06 -5.882750884e-06 1.834207808e-07 7.189909411e-06 -2.073388146e-07 1.254449307e-05 )
( 6.944253073e-06 -5.867117125e-06 1.826769136e-07 6.830065104e-06 -2.109978823e-07 1.176505248e-05 )
( 5.226800567e-06 -4.80534527e-06 1.255163227e-07 5.040024007e-06 -1.425598697e-07 8.65090351e-06 )
( 6.134914202e-06 -5.441258509e-06 1.579387288e-07 5.966966455e-06 -1.802759471e-07 1.027811777e-05 )
( 4.268791599e-06 -4.006066774e-06 9.670760903e-08 4.086058198e-06 -1.077831442e-07 6.994817795e-06 )
( 3.318896233e-06 -3.151968031e-06 7.066740437e-08 3.155881132e-06 -7.631525989e-08 5.335121386e-06 )
( 1.499466975e-06 -1.444812938e-06 2.837118096e-08 1.416833243e-06 -2.902964447e-08 2.312097422e-06 )
( 2.360880671e-06 -2.261467444e-06 4.735095871e-08 2.235951115e-06 -4.95138508e-08 3.725373972e-06 )
( 1.484360041e-06 -1.428335736e-06 3.010841354e-08 1.398160407e-06 -3.044164387e-08 2.288988981e-06 )
( 8.72379951e-06 -4.455724593e-06 1.554441269e-07 1.0078993e-05 -6.084110282e-08 1.625197729e-05 )
( 1.424103721e-05 -5.428146324e-06 2.445242728e-07 1.549729313e-05 -3.723897635e-09 1.954710933e-05 )
( 2.815082917e-05 -1.122556205e-05 -4.26031086e-08 2.393006071e-05 1.264404546e-07 2.35464704e-05 )
( 1.051727486e-05 -4.35380889e-06 2.000896302e-07 1.227977737e-05 -2.123080023e-08 1.771729694e-05 )
( 8.45266095e-06 -4.683664883e-06 1.468325479e-07 9.552308256e-06 -7.675733116e-08 1.566119681e-05 )
( 8.150199392e-06 -5.047010745e-06 1.595973345e-07 8.886398064e-06 -1.175230864e-07 1.497389621e-05 )
( 7.572768027e-06 -5.65712935e-06 1.806930641e-07 7.691096471e-06 -1.829849765e-07 1.370689461e-05 )
( 7.84268741e-06 -5.440366749e-06 1.797564551e-07 8.159185199e-06 -1.626713555e-07 1.430580051e-05 )
( 7.218682185e-06 -5.798829989e-06 1.732905162e-07 7.25068594e-06 -1.868699542e-07 1.294066169e-05 )
( 6.866304375e-06 -5.796799996e-06 1.756179984e-07 6.831207884e-06 -2.020732666e-07 1.191153569e-05 )
( 6.842867606e-06 -5.76725688e-06 1.694054532e-07 6.848654266e-06 -1.925819788e-07 1.204173623e-05 )
( 6.10679308e-06 -5.422612958e-06 1.54080638e-07 5.962551768e-06 -1.743473916e-07 1.035704099e-05 )
( 4.270531008e-06 -4.014365459e-06 9.322214112e-08 4.108555459e-06 -1.036955055e-07 7.078562703e-06 )
( 5.178751053e-06 -4.776239621e-06 1.232101567e-07 5.018038792e-06 -1.381146717e-07 8.717114724e-06 )
( 3.305776545e-06 -3.146072459e-06 6.631159977e-08 3.157370202e-06 -7.277217406e-08 5.379553841e-06 )
( 2.375400072e-06 -2.27782607e-06 4.398565068e-08 2.255381332e-06 -4.681095334e-08 3.76219964e-06 )
( 8.096365036e-07 -7.840080229e-07 1.28886084e-08 7.659047014e-07 -1.311195419e-08 1.215879934e-06 )
( 1.510349534e-06 -1.456877953e-06 2.598472904e-08 1.430469979e-06 -2.704445379e-08 2.331534233e-06 )
( 7.993781423e-07 -7.734664678e-07 1.386246673e-08 7.5484121e-07 -1.400919825e-08 1.203969418e-06 )
( 8.095606063e-06 -4.877345418e-06 1.669108087e-07 8.984613487e-06 -1.079130314e-07 1.540701487e-05 )
( 8.502393939e-06 -4.4069875e-06 1.544243844e-07 9.846924513e-06 -8.845477595e-08 1.643833457e-05 )
( 8.071806405e-06 -4.760036973e-06 1.664428879e-07 9.053100257e-06 -1.066011563e-07 1.568881453e-05 )
( 1.127915766e-05 -4.368939699e-06 2.445233065e-07 1.306468948e-05 -8.101743276e-08 1.873276597e-05 )
( 2.565299837e-05 -9.81316407e-06 -6.358574112e-09 2.187945211e-05 5.696448468e-08 2.287269672e-05 )
( 1.389155477e-05 -5.084832083e-06 2.56542279e-07 1.508261539e-05 -8.400414941e-08 1.989972407e-05 )
( 4.608635936e-05 -1.82158401e-05 -5.459434647e-07 2.874592064e-05 1.740954474e-07 2.694580508e-05 )
( 8.953062206e-06 -4.226303645e-06 1.662738214e-07 1.050165702e-05 -9.620423214e-08 1.711314144e-05 )
( 7.770706361e-06 -5.245034117e-06 1.798994163e-07 8.273372259e-06 -1.504269278e-07 1.469459676e-05 )
( 7.310102319e-06 -5.650857929e-06 1.817535633e-07 7.430778169e-06 -1.772915112e-07 1.349424929e-05 )
( 7.50799245e-06 -5.563027116e-06 1.850662272e-07 7.700203241e-06 -1.738610251e-07 1.392694867e-05 )
( 6.808860235e-06 -5.735170362e-06 1.627661987e-07 6.835051863e-06 -1.803868344e-07 1.218734542e-05 )
( 6.796272828e-06 -5.70969587e-06 1.602190025e-07 6.859597306e-06 -1.717384777e-07 1.233293733e-05 )
( 6.049675903e-06 -5.375417913e-06 1.443316791e-07 5.963230706e-06 -1.636877442e-07 1.049560342e-05 )
( 6.027960808e-06 -5.362074717e-06 1.385104582e-07 5.973705811e-06 -1.556471148e-07 1.059625538e-05 )
( 5.165164112e-06 -4.767476639e-06 1.188790577e-07 5.028454325e-06 -1.321395331e-07 8.803702258e-06 )
( 3.312378567e-06 -3.15785519e-06 6.352454562e-08 3.17743411e-06 -6.873990799e-08 5.44402792e-06 )
( 4.253350198e-06 -4.005918072e-06 9.039408866e-08 4.109507245e-06 -9.958419156e-08 7.151629688e-06 )
( 2.372742529e-06 -2.279520004e-06 4.051285174e-08 2.261295322e-06 -4.316090596e-08 3.792911912e-06 )
( 1.523212745e-06 -1.470394636e-06 2.343520933e-08 1.444945042e-06 -2.445515435e-08 2.353425089e-06 )
( 3.273013647e-07 -3.179930275e-07 4.12462553e-09 3.101327479e-07 -4.128107634e-09 4.774186095e-07 )
( 8.169984653e-07 -7.918760048e-07 1.130559113e-08 7.743454944e-07 -1.161444185e-08 1.22519225e-06 )
( 3.224180603e-07 -3.132185498e-07 4.648168073e-09 3.054180695e-07 -4.665421383e-09 4.726805116e-07 )
( 7.639225259e-06 -5.157598025e-06 1.859549315e-07 8.183773389e-06 -1.364928295e-07 1.494508251e-05 )
( 8.119771337e-06 -4.56260841e-06 1.670673271e-07 9.228723684e-06 -1.249422183e-07 1.621133561e-05 )
( 7.610107787e-06 -4.943025942e-06 1.729099495e-07 8.32900696e-06 -1.396341247e-07 1.537458593e-05 )
( 9.374927686e-06 -4.077802259e-06 1.8243162e-07 1.099034216e-05 -1.613493339e-07 1.801850158e-05 )
( 4.404120409e-05 -1.667336983e-05 -5.333503168e-07 2.670888898e-05 1.129776663e-07 2.596374361e-05 )
( 2.008568117e-05 -7.359944902e-06 9.472169893e-08 1.811961192e-05 -8.593590906e-08 2.164116631e-05 )
( 1.290930777e-05 -4.784306839e-06 2.317478192e-07 1.408019671e-05 -1.453178413e-07 1.972808059e-05 )
( 6.885059702e-05 -2.537413457e-05 -8.619320511e-07 3.096266664e-05 1.831111831e-07 3.136467058e-05 )
( 8.13484894e-06 -4.444973456e-06 1.572198585e-07 9.303543266e-06 -1.394161728e-07 1.651771163e-05 )
( 8.703502317e-06 -4.153501322e-06 1.539814605e-07 1.021487515e-05 -1.404468009e-07 1.72953678e-05 )
( 7.421351711e-06 -5.387617421e-06 1.861618557e-07 7.724443094e-06 -1.563262373e-07 1.43567604e-05 )
( 6.929480151e-06 -5.683274594e-06 1.653075117e-07 7.057828952e-06 -1.698291356e-07 1.283377242e-05 )
( 6.914003279e-06 -5.641042662e-06 1.646353525e-07 7.083959645e-06 -1.631851916e-07 1.297066683e-05 )
( 7.128051948e-06 -5.580729521e-06 1.755592933e-07 7.317362815e-06 -1.618422232e-07 1.35962573e-05 )
( 6.016455245e-06 -5.343001249e-06 1.322904808e-07 5.990923e-06 -1.435975889e-07 1.075647288e-05 )
( 6.102849056e-06 -5.392096227e-06 1.326218495e-07 6.110102277e-06 -1.418370061e-07 1.105416413e-05 )
( 5.129475539e-06 -4.743395948e-06 1.121787108e-07 5.026551207e-06 -1.237162479e-07 8.905049981e-06 )
( 5.1245338e-06 -4.741942121e-06 1.065216111e-07 5.054266239e-06 -1.15074684e-07 9.017662705e-06 )
( 4.252263807e-06 -4.010800694e-06 8.785976036e-08 4.129026365e-06 -9.453244587e-08 7.234057648e-06 )
( 2.38167695e-06 -2.291516921e-06 3.875589982e-08 2.277432031e-06 -4.021622146e-08 3.837948498e-06 )
( 3.310634384e-06 -3.161155746e-06 6.178590439e-08 3.187644097e-06 -6.532895469e-08 5.506429261e-06 )
( 1.525678272e-06 -1.475116278e-06 2.109278086e-08 1.451737489e-06 -2.173755398e-08 2.372370773e-06 )
( 8.256118349e-07 -8.00509099e-07 9.887536123e-09 7.830367394e-07 -1.007003991e-08 1.23618895e-06 )
( 9.139280621e-08 -8.903374038e-08 9.058331862e-10 8.687619157e-08 -8.856416711e-10 1.297730421e-07 )
( 3.305493408e-07 -3.214440767e-07 3.45635609e-09 3.137839144e-07 -3.478033195e-09 4.807147889e-07 )
( 8.983659683e-08 -8.755979763e-08 1.004327399e-09 8.547633712e-08 -9.934482126e-10 1.283612789e-07 )
( 7.289901077e-06 -5.294001767e-06 1.889927574e-07 7.684106095e-06 -1.470769178e-07 1.456973587e-05 )
( 7.65191362e-06 -4.809047823e-06 1.688553795e-07 8.347770745e-06 -1.46811729e-07 1.577285002e-05 )
( 7.329416803e-06 -5.077120477e-06 1.760739394e-07 7.777829524e-06 -1.484188203e-07 1.511480423e-05 )
( 8.294894542e-06 -4.177517894e-06 1.491409165e-07 9.562628293e-06 -1.891222041e-07 1.737236744e-05 )
( 9.121768926e-06 -3.985928288e-06 1.746646774e-07 1.067396079e-05 -1.966273686e-07 1.819703175e-05 )
( 8.244674063e-06 -4.276306754e-06 1.494014583e-07 9.483011127e-06 -1.747968952e-07 1.706015792e-05 )
( 4.18490672e-05 -1.506858825e-05 -5.053697123e-07 2.448857776e-05 4.157107014e-08 2.502513598e-05 )
( 6.922629836e-05 -2.376469274e-05 -9.250317703e-07 2.837802822e-05 1.252268191e-07 3.05644644e-05 )
( 2.052561831e-05 -7.227293281e-06 7.387784251e-08 1.767058347e-05 -1.438045558e-07 2.187697464e-05 )
( 1.490614613e-05 -5.319662705e-06 2.198542717e-07 1.51951499e-05 -1.934678409e-07 2.076332021e-05 )
( 1.018553758e-05 -4.071836884e-06 2.096138587e-07 1.166029961e-05 -2.134439825e-07 1.897977381e-05 )
( 8.225691272e-05 -2.751726242e-05 -1.039598374e-06 2.952888099e-05 1.55597661e-07 3.627809201e-05 )
( 7.634899703e-06 -4.603673915e-06 1.366846902e-07 8.461853213e-06 -1.635421825e-07 1.61995431e-05 )
( 7.115819244e-06 -5.405041975e-06 1.828835536e-07 7.423562238e-06 -1.476324059e-07 1.41144119e-05 )
( 6.196091817e-06 -5.419190984e-06 1.341720548e-07 6.27422196e-06 -1.392993738e-07 1.147709099e-05 )
( 6.184132417e-06 -5.408433935e-06 1.324949892e-07 6.291743375e-06 -1.34204015e-07 1.15840694e-05 )
( 6.680642855e-06 -5.57499061e-06 1.552938471e-07 6.875714462e-06 -1.50834822e-07 1.277623414e-05 )
( 6.665564797e-06 -5.540005986e-06 1.539454217e-07 6.891429166e-06 -1.438923078e-07 1.292192155e-05 )
( 5.098053407e-06 -4.733508376e-06 1.016158464e-07 5.061244792e-06 -1.066618864e-07 9.122126357e-06 )
( 5.125381904e-06 -4.754112069e-06 9.822123559e-08 5.110906841e-06 -9.984301386e-08 9.261617379e-06 )
( 4.21770801e-06 -3.989556262e-06 8.38788452e-08 4.123552117e-06 -8.790576089e-08 7.301587175e-06 )
( 4.214312867e-06 -3.996257874e-06 8.070543345e-08 4.150950645e-06 -8.15655099e-08 7.396216915e-06 )
( 3.312861736e-06 -3.169144293e-06 6.038800393e-08 3.205226221e-06 -6.146181875e-08 5.570043868e-06 )
( 1.534347803e-06 -1.485090365e-06 1.998606081e-08 1.463305694e-06 -1.972851393e-08 2.400108997e-06 )
( 2.384674644e-06 -2.297942046e-06 3.767279466e-08 2.287924417e-06 -3.769258683e-08 3.881030807e-06 )
( 8.288455433e-07 -8.047103393e-07 8.64800942e-09 7.881109809e-07 -8.602611068e-09 1.246119268e-06 )
( 3.346546009e-07 -3.253957175e-07 2.89244162e-09 3.175873928e-07 -2.862323711e-09 4.849534321e-07 )
( 9.224923048e-08 -8.995967704e-08 6.919205209e-10 8.786707184e-08 -6.834947053e-10 1.305674573e-07 )
( 6.954399851e-06 -5.340609732e-06 1.718687059e-07 7.292856026e-06 -1.370112415e-07 1.426252948e-05 )
( 7.292690043e-06 -4.965158041e-06 1.576418498e-07 7.772558092e-06 -1.502067164e-07 1.538271317e-05 )
( 7.07476056e-06 -5.113233783e-06 1.588758778e-07 7.460819688e-06 -1.384739505e-07 1.488740054e-05 )
( 7.594564522e-06 -4.484190868e-06 1.266069205e-07 8.388829883e-06 -1.830032659e-07 1.655412416e-05 )
( 7.63947719e-06 -4.297021405e-06 1.025620833e-07 8.550850907e-06 -1.803274756e-07 1.698133565e-05 )
( 8.701557817e-06 -3.998007742e-06 1.531456206e-07 1.010693268e-05 -2.121358165e-07 1.808545312e-05 )
( 3.361091876e-05 -1.141000575e-05 -3.130305117e-07 2.041262996e-05 -3.244702285e-08 2.349097122e-05 )
( 6.914428377e-05 -2.222244984e-05 -9.460057981e-07 2.615101948e-05 9.967345704e-08 2.940102786e-05 )
( 8.470075409e-05 -2.59197077e-05 -1.12512646e-06 2.669502828e-05 1.191144321e-07 3.640216892e-05 )
( 1.9025867e-05 -6.633933481e-06 9.472526585e-08 1.639282345e-05 -1.64692878e-07 2.164330726e-05 )
( 1.149374293e-05 -4.278098913e-06 2.287178376e-07 1.243410225e-05 -2.116400424e-07 1.993130536e-05 )
( 9.9041672e-06 -3.954142358e-06 2.093558464e-07 1.129608881e-05 -2.216625319e-07 1.914889071e-05 )
( 8.842609532e-06 -3.925427791e-06 1.626161179e-07 1.024929043e-05 -2.140967013e-07 1.842102938e-05 )
( 8.137179248e-05 -2.467072773e-05 -1.078351261e-06 2.600026346e-05 1.410068791e-07 4.126278873e-05 )
( 7.270748483e-06 -4.755495411e-06 1.253019803e-07 7.781348359e-06 -1.678529884e-07 1.5887068e-05 )
( 6.775592283e-06 -5.428189525e-06 1.606692592e-07 7.101115898e-06 -1.357490476e-07 1.36049548e-05 )
( 6.78333663e-06 -5.481205335e-06 1.618263497e-07 7.082961019e-06 -1.420530396e-07 1.344605789e-05 )
( 5.211281859e-06 -4.805906883e-06 9.781722099e-08 5.233717275e-06 -9.799758516e-08 9.57652901e-06 )
( 5.230874649e-06 -4.8084421e-06 9.617443908e-08 5.279134712e-06 -9.26202901e-08 9.701186173e-06 )
( 6.05370451e-06 -5.31900514e-06 1.241276664e-07 6.165152627e-06 -1.192494921e-07 1.149195123e-05 )
( 6.030943041e-06 -5.309355402e-06 1.212295047e-07 6.165578725e-06 -1.123456528e-07 1.161197997e-05 )
( 4.213688953e-06 -4.00680301e-06 7.738668018e-08 4.179205007e-06 -7.613854081e-08 7.498989362e-06 )
( 4.237489065e-06 -4.035359325e-06 7.471046359e-08 4.225742941e-06 -7.194648077e-08 7.604959592e-06 )
( 3.289231017e-06 -3.156502544e-06 5.838380801e-08 3.20475192e-06 -5.727155283e-08 5.622307071e-06 )
( 3.28682836e-06 -3.165195949e-06 5.745237885e-08 3.229353524e-06 -5.401158631e-08 5.697007964e-06 )
( 2.38874145e-06 -2.306067927e-06 3.737717336e-08 2.301703944e-06 -3.565735085e-08 3.9260226e-06 )
( 8.349650784e-07 -8.111377952e-07 8.127665652e-09 7.948917755e-07 -7.631994592e-09 1.260339559e-06 )
( 1.538463607e-06 -1.491193643e-06 1.96134593e-08 1.471546511e-06 -1.849618414e-08 2.426193305e-06 )
( 3.364876022e-07 -3.275820291e-07 2.426610246e-09 3.200956655e-07 -2.330366344e-09 4.888246963e-07 )
( 9.360647368e-08 -9.124005373e-08 5.602623365e-10 8.906988569e-08 -5.378561485e-10 1.317151828e-07 )
( 6.561708688e-06 -5.383986263e-06 1.50061652e-07 6.887446943e-06 -1.24941991e-07 1.344151406e-05 )
( 6.557180313e-06 -5.337286893e-06 1.456619003e-07 6.893366844e-06 -1.229350914e-07 1.361178147e-05 )
( 6.927611139e-06 -5.058553597e-06 1.244561361e-07 7.296053809e-06 -1.394848255e-07 1.502720625e-05 )
( 6.680694241e-06 -5.244106433e-06 1.458923293e-07 7.076136171e-06 -1.287631903e-07 1.416443411e-05 )
( 6.682879757e-06 -5.179146683e-06 1.364620488e-07 7.080302566e-06 -1.295340297e-07 1.432874797e-05 )
( 7.201080734e-06 -4.656035344e-06 1.032926704e-07 7.760936569e-06 -1.653187383e-07 1.614315624e-05 )
( 7.423843272e-06 -4.381380222e-06 8.126833251e-08 8.102028005e-06 -1.640707694e-07 1.683657501e-05 )
( 7.914716662e-06 -4.110635473e-06 1.032671832e-07 8.933713616e-06 -1.871058544e-07 1.758356848e-05 )
( 2.473461609e-05 -8.405000699e-06 -1.283592042e-07 1.770042218e-05 -5.778876755e-08 2.243563176e-05 )
( 6.89180888e-05 -2.047633097e-05 -9.670441159e-07 2.365105502e-05 9.492990216e-08 2.830828817e-05 )
( 3.747575465e-05 -1.196150333e-05 -4.525353461e-07 1.980302113e-05 3.164497286e-08 2.351492003e-05 )
( 8.626293857e-05 -2.409796616e-05 -1.156625444e-06 2.401652091e-05 1.076709992e-07 3.621826545e-05 )
( 8.210062515e-05 -2.295044942e-05 -1.083283337e-06 2.362409759e-05 1.427127074e-07 4.158125375e-05 )
( 1.432717545e-05 -4.983392046e-06 1.920217585e-07 1.368747689e-05 -1.632545121e-07 2.098217919e-05 )
( 9.257664715e-06 -3.933208973e-06 1.793957694e-07 1.046425041e-05 -2.015142115e-07 1.892193541e-05 )
( 9.51738366e-06 -3.908988674e-06 1.971488075e-07 1.064419939e-05 -1.855048026e-07 1.926190998e-05 )
( 1.126445295e-05 -4.160589015e-06 2.370103545e-07 1.207046444e-05 -1.948365167e-07 2.008371666e-05 )
( 7.836129953e-06 -4.022706435e-06 1.017874638e-07 8.797568626e-06 -1.589905594e-07 1.782614709e-05 )
( 6.660861982e-05 -1.847293061e-05 -7.643167237e-07 2.207620309e-05 1.680589179e-07 4.485329555e-05 )
( 6.970824415e-06 -4.821731636e-06 1.001457974e-07 7.406829809e-06 -1.521330688e-07 1.562802754e-05 )
( 6.09277231e-06 -5.28831697e-06 1.23284849e-07 6.323163689e-06 -1.060707433e-07 1.218287071e-05 )
( 6.102247426e-06 -5.306926141e-06 1.246198451e-07 6.310495792e-06 -1.095351081e-07 1.204759519e-05 )
( 4.242390332e-06 -4.046545655e-06 7.220571518e-08 4.253063707e-06 -6.807866981e-08 7.704486052e-06 )
( 4.272239948e-06 -4.076183814e-06 7.100082655e-08 4.298204203e-06 -6.481477044e-08 7.816842299e-06 )
( 5.119517027e-06 -4.762170647e-06 8.790119921e-08 5.176990271e-06 -8.20902244e-08 9.623230653e-06 )
( 5.136783329e-06 -4.770537089e-06 8.324471423e-08 5.207873983e-06 -7.503636112e-08 9.75886087e-06 )
( 3.293047484e-06 -3.183703484e-06 5.656655944e-08 3.263656254e-06 -5.199236952e-08 5.779746971e-06 )
( 3.322577868e-06 -3.219986183e-06 5.62705047e-08 3.313447223e-06 -5.113503931e-08 5.867245818e-06 )
( 2.37383324e-06 -2.299245807e-06 3.698864504e-08 2.303407655e-06 -3.400745641e-08 3.964111329e-06 )
( 2.371456503e-06 -2.306758461e-06 3.758274758e-08 2.322688715e-06 -3.33891883e-08 4.018735126e-06 )
( 1.54261113e-06 -1.49751429e-06 2.01239061e-08 1.48060758e-06 -1.808857775e-08 2.454616606e-06 )
( 3.3948902e-07 -3.305223117e-07 2.348022221e-09 3.229818049e-07 -2.113416775e-09 4.942959322e-07 )
( 8.379936389e-07 -8.151033057e-07 8.251741512e-09 7.998046385e-07 -7.400617008e-09 1.273535531e-06 )
( 9.415065705e-08 -9.188696026e-08 4.363570894e-10 8.981562871e-08 -4.025736133e-10 1.327435797e-07 )
( 5.985285497e-06 -5.203839919e-06 1.138960499e-07 6.191428838e-06 -9.577061633e-08 1.212646748e-05 )
( 5.975819931e-06 -5.190571756e-06 1.113630503e-07 6.189036412e-06 -9.547461843e-08 1.228618112e-05 )
( 6.489394309e-06 -5.111160135e-06 1.018931641e-07 6.853951618e-06 -1.241729706e-07 1.433711168e-05 )
( 6.486112852e-06 -5.163122296e-06 1.143767392e-07 6.853721516e-06 -1.235114127e-07 1.416398754e-05 )
( 6.042775567e-06 -5.157761279e-06 1.102306726e-07 6.311246125e-06 -1.01981442e-07 1.273255566e-05 )
( 6.04685647e-06 -5.137795142e-06 1.051610781e-07 6.320357897e-06 -1.032868724e-07 1.288657404e-05 )
( 6.861717338e-06 -4.785766578e-06 6.329899094e-08 7.273675237e-06 -1.287809113e-07 1.578844058e-05 )
( 6.959625352e-06 -4.530970728e-06 4.701397316e-08 7.427687251e-06 -1.219839589e-07 1.640824667e-05 )
( 7.372567779e-06 -4.278735105e-06 6.853017709e-08 8.112574506e-06 -1.386234771e-07 1.710296056e-05 )
( 1.910189349e-05 -6.329240932e-06 2.35169022e-08 1.476744364e-05 -6.950882891e-08 2.174522888e-05 )
( 8.691669063e-05 -2.210227103e-05 -1.152794994e-06 2.154150752e-05 1.128532858e-07 3.577358802e-05 )
( 6.056195343e-05 -1.678126137e-05 -8.739636996e-07 2.034629142e-05 1.174840349e-07 2.611085984e-05 )
( 3.574142829e-05 -1.110058292e-05 -4.147931918e-07 1.834484647e-05 4.588920888e-08 2.317663166e-05 )
( 8.167048509e-05 -2.10279868e-05 -1.003390707e-06 2.144272366e-05 1.326157815e-07 4.165327482e-05 )
( 6.497228605e-05 -1.693193917e-05 -6.889418387e-07 2.056696394e-05 1.611660139e-07 4.527232159e-05 )
( 1.048629747e-05 -4.019990229e-06 2.244471773e-07 1.125479321e-05 -1.680879507e-07 1.989213888e-05 )
( 1.444238842e-05 -4.927144801e-06 1.882098104e-07 1.336330206e-05 -1.369732132e-07 2.116078758e-05 )
( 1.186721784e-05 -4.291430287e-06 2.275241684e-07 1.198437167e-05 -1.515569465e-07 2.050452895e-05 )
( 8.095184967e-06 -3.924963494e-06 1.225804453e-07 9.011058864e-06 -1.453884977e-07 1.832694397e-05 )
( 8.229426385e-06 -3.819253834e-06 1.454160099e-07 9.117515219e-06 -1.199555584e-07 1.869053449e-05 )
( 7.50890058e-06 -4.108443136e-06 7.556396753e-08 8.1593098e-06 -1.152573503e-07 1.761750173e-05 )
( 5.253015479e-05 -1.410549339e-05 -1.936118394e-07 2.04453645e-05 9.777046728e-08 4.406490189e-05 )
( 6.611275239e-06 -4.993989933e-06 9.583050797e-08 7.036650004e-06 -1.331967923e-07 1.490470731e-05 )
( 6.621739885e-06 -4.923758297e-06 7.874291441e-08 7.048347015e-06 -1.312547084e-07 1.507845082e-05 )
( 5.223336757e-06 -4.792553682e-06 8.63196945e-08 5.352532753e-06 -7.126347157e-08 1.025080655e-05 )
( 5.207983577e-06 -4.80605604e-06 8.538870588e-08 5.320579021e-06 -7.373012068e-08 1.010244341e-05 )
( 3.336268037e-06 -3.240157412e-06 5.51681687e-08 3.344227707e-06 -5.028295291e-08 5.941486506e-06 )
( 3.372672609e-06 -3.277620863e-06 5.510252521e-08 3.390812935e-06 -4.921957242e-08 6.033540558e-06 )
( 4.285791874e-06 -4.094151336e-06 6.610130754e-08 4.324056135e-06 -6.059662638e-08 7.919727977e-06 )
( 4.314963917e-06 -4.122079645e-06 6.155026e-08 4.365420864e-06 -5.508463019e-08 8.046255971e-06 )
( 2.379843409e-06 -2.327646371e-06 3.845746122e-08 2.357488029e-06 -3.393078174e-08 4.079750397e-06 )
( 2.410361503e-06 -2.3648754e-06 3.979918972e-08 2.404544375e-06 -3.526762526e-08 4.146112587e-06 )
( 1.53392034e-06 -1.49390246e-06 2.071087479e-08 1.482204198e-06 -1.819284812e-08 2.479490149e-06 )
( 1.531414227e-06 -1.498946745e-06 2.189953463e-08 1.495339802e-06 -1.893232593e-08 2.514923835e-06 )
( 8.410673331e-07 -8.189585401e-07 8.938572549e-09 8.046074527e-07 -7.731240537e-09 1.288299131e-06 )
( 9.519338562e-08 -9.28632744e-08 4.034567125e-10 9.07269424e-08 -3.407633897e-10 1.343045568e-07 )
( 3.408316331e-07 -3.322295754e-07 2.522792641e-09 3.250428051e-07 -2.201637317e-09 4.989996114e-07 )
( 5.124170912e-06 -4.753742815e-06 8.142231422e-08 5.248961315e-06 -6.733041147e-08 1.021010576e-05 )
( 5.148468972e-06 -4.752740551e-06 7.93685615e-08 5.269158009e-06 -6.920000573e-08 1.037068432e-05 )
( 5.965637229e-06 -5.054713711e-06 7.890063358e-08 6.179787306e-06 -9.694760195e-08 1.300516396e-05 )
( 5.976016837e-06 -5.069191957e-06 8.736969903e-08 6.1941887e-06 -9.865913597e-08 1.28592992e-05 )
( 5.217038961e-06 -4.771420208e-06 8.138768948e-08 5.366835921e-06 -7.533688517e-08 1.072567557e-05 )
( 5.246405635e-06 -4.753305348e-06 7.722275797e-08 5.390543265e-06 -7.742220021e-08 1.088375029e-05 )
( 6.463982118e-06 -4.935795914e-06 5.572562145e-08 6.873006441e-06 -1.110500492e-07 1.497510311e-05 )
( 6.532532097e-06 -4.877451829e-06 4.26509672e-08 6.963857686e-06 -1.053249221e-07 1.530320878e-05 )
( 6.581032721e-06 -4.737895324e-06 3.762285061e-08 7.063754765e-06 -1.021699916e-07 1.568658627e-05 )
( 6.605354884e-06 -4.655313205e-06 2.707720803e-08 7.092909527e-06 -8.973744059e-08 1.586394137e-05 )
( 6.886665687e-06 -4.485241789e-06 2.776960883e-08 7.354788522e-06 -7.301159144e-08 1.659889313e-05 )
( 1.570847962e-05 -5.247441095e-06 1.084900774e-07 1.304426223e-05 -8.099852522e-08 2.134429997e-05 )
( 1.291555145e-05 -4.530747901e-06 1.807144514e-07 1.212242933e-05 -1.175732578e-07 2.079343722e-05 )
( 2.003874761e-05 -6.475080227e-06 -1.567232744e-08 1.445983708e-05 -3.88515069e-08 2.183308243e-05 )
( 8.506756421e-05 -1.935768341e-05 -1.140912559e-06 1.887756298e-05 1.138961565e-07 3.63737563e-05 )
( 7.835649012e-05 -1.838764729e-05 -8.807136851e-07 1.913728556e-05 1.180404041e-07 4.270586214e-05 )
( 7.097904745e-05 -1.745534973e-05 -1.079644562e-06 1.880901254e-05 1.582956202e-07 2.671064976e-05 )
( 5.278238314e-05 -1.472031454e-05 -8.024693443e-07 1.869472726e-05 1.373471576e-07 2.37530403e-05 )
( 2.837038483e-05 -8.796959264e-06 -2.690152314e-07 1.588157829e-05 3.498758261e-08 2.223313095e-05 )
( 6.274762563e-05 -1.526180131e-05 -5.423766538e-07 1.909551975e-05 1.288353673e-07 4.585765782e-05 )