/*--------------------------------*- C++ -*----------------------------------*\
  =========                 |
  \\      /  F ield         | OpenFOAM: The Open Source CFD Toolbox
   \\    /   O peration     | Website:  https://openfoam.org
    \\  /    A nd           | Version:  8
     \\/     M anipulation  |
\*---------------------------------------------------------------------------*/






FoamFile
{
    version     2.0;
    format      ascii;
    class       volScalarField;
    location    "0";
    object      V;
}
// * * * * * * * * * * * * * * * * * * * * * * * * * * * * * * * * * * * * * //

dimensions      [0 3 0 0 0 0 0];


internalField   nonuniform List<scalar> 
15853
(
2.478757494e-05
2.51214138e-05
1.496059076e-05
2.517861e-05
2.481064366e-05
1.157228985e-05
1.157448261e-05
2.476883587e-05
2.365895748e-05
1.479202153e-05
9.615395156e-06
1.160500069e-05
9.616734941e-06
8.704703455e-05
2.525476412e-05
2.491644785e-05
1.161108907e-05
7.989006594e-06
9.633195621e-06
7.989832872e-06
7.641337972e-05
2.486209341e-05
2.528310317e-05
2.553925574e-05
1.506143425e-05
1.159641127e-05
9.638628309e-06
6.637433481e-06
7.99735467e-06
6.63795982e-06
7.799666985e-05
8.283417234e-05
2.532617912e-05
2.373862443e-05
2.495489706e-05
1.160260814e-05
9.635416326e-06
8.00194528e-06
5.514328401e-06
6.639949054e-06
5.514686414e-06
0.0002614774073
7.67757287e-05
2.534712019e-05
2.494239623e-05
2.528786838e-05
2.493672067e-05
1.484285191e-05
9.641261706e-06
1.164160491e-05
8.005129414e-06
6.643665908e-06
4.581132202e-06
5.513388319e-06
4.581400924e-06
7.710464268e-05
0.0002476096728
7.882427945e-05
8.774588938e-05
2.380270528e-05
2.542093985e-05
2.496964406e-05
1.505948316e-05
1.165029582e-05
8.01037167e-06
9.659783478e-06
6.650062878e-06
5.51628496e-06
3.805774323e-06
4.578276887e-06
3.805999097e-06
8.343020113e-05
0.0002654063697
0.0002656155273
7.755168314e-05
2.499855382e-05
2.539620349e-05
2.504186308e-05
2.566527537e-05
1.488200852e-05
1.164216661e-05
1.165980165e-05
9.667121743e-06
6.654605977e-06
8.016351728e-06
5.523949744e-06
4.58044847e-06
3.161586785e-06
3.801984778e-06
3.161792372e-06
2.543471342e-05
2.507181087e-05
2.542554726e-05
7.807780244e-05
0.0002525784457
8.005279229e-05
0.0002755502625
8.853113758e-05
2.381068406e-05
1.511580559e-05
2.502332485e-05
1.167446826e-05
1.167996749e-05
9.665922049e-06
9.680810796e-06
8.022514886e-06
5.52778886e-06
6.653220591e-06
4.588239846e-06
3.803541417e-06
2.626398593e-06
3.157471922e-06
2.626597074e-06
2.534324749e-05
2.552696237e-05
2.384102253e-05
8.443980094e-05
0.0002721029491
0.0002712026998
7.880796422e-05
0.0002889985779
2.552101975e-05
2.51884125e-05
2.495398409e-05
1.163163041e-05
1.16378102e-05
1.485309649e-05
9.684465322e-06
9.691174672e-06
8.02509216e-06
8.03745465e-06
6.658374618e-06
4.591420565e-06
5.522368081e-06
3.810831777e-06
3.158523839e-06
2.181779719e-06
2.622322585e-06
2.18197583e-06
2.495110114e-05
2.574234212e-05
2.503702443e-05
2.566739423e-05
2.53772628e-05
2.561620842e-05
0.0002594641952
0.000283390196
8.218134391e-05
7.983189941e-05
9.009519523e-05
0.0003024672569
2.390743256e-05
1.503189194e-05
9.663795862e-06
9.668430682e-06
1.163927774e-05
1.165042936e-05
8.034734952e-06
8.041837443e-06
6.662767402e-06
6.672891956e-06
5.526663182e-06
3.813424068e-06
4.58406506e-06
3.165007419e-06
2.622971434e-06
2.177947785e-06
1.484454357e-05
2.504612328e-05
1.509428232e-05
2.551862545e-05
2.406562571e-05
2.584909335e-05
0.0002798414079
0.000280592273
0.000298211271
8.109545668e-05
8.649415965e-05
2.56566948e-05
2.591314602e-05
0.0003168916099
2.503632898e-05
1.161887466e-05
1.160235819e-05
8.027748962e-06
8.03134705e-06
9.656724571e-06
9.667265343e-06
6.666768117e-06
6.67376617e-06
5.531688019e-06
5.539881963e-06
4.587634057e-06
3.167089904e-06
3.805423447e-06
2.628538347e-06
2.178283201e-06
1.161785281e-05
1.164422388e-05
1.48565448e-05
1.158929593e-05
1.160860007e-05
2.510799844e-05
2.527680356e-05
2.607524874e-05
8.293674931e-05
0.0002684090777
8.54834501e-05
0.0002931509255
0.0003129830062
9.340419897e-05
2.610440467e-05
2.628329414e-05
2.613575113e-05
2.427921367e-05
0.0003318531633
1.508407414e-05
9.646721374e-06
9.633588232e-06
6.667903869e-06
6.670794787e-06
8.013056652e-06
8.022874355e-06
5.532216598e-06
5.538823101e-06
4.592609667e-06
4.599170756e-06
3.808382097e-06
2.630189163e-06
3.159204009e-06
2.182937683e-06
9.639815784e-06
9.661850827e-06
1.164735302e-05
1.161249064e-05
9.628803905e-06
9.643486098e-06
1.494373556e-05
1.524646727e-05
2.536199494e-05
9.070701329e-05
0.0002910171886
0.0002894984047
8.43179219e-05
0.0003093275883
0.0003286284362
2.667997615e-05
2.702055547e-05
2.713507557e-05
2.602030789e-05
2.470285383e-05
2.541285642e-05
0.0003472691071
1.161556034e-05
1.165906993e-05
8.009759743e-06
7.999192354e-06
5.537875537e-06
5.540271893e-06
6.649982199e-06
6.659019526e-06
4.591096846e-06
4.597161767e-06
3.812945359e-06
3.818146717e-06
3.161651816e-06
2.184229428e-06
2.622836467e-06
7.999992381e-06
8.018336852e-06
9.659103115e-06
9.636499506e-06
7.999376398e-06
8.010745737e-06
1.166919644e-05
1.172211157e-05
1.167750268e-05
1.172861874e-05
1.503619155e-05
2.82772906e-05
2.772302485e-05
2.849271248e-05
0.0002793167336
0.0003050135659
8.781304211e-05
8.854309361e-05
9.232307011e-05
0.000325357335
0.0003446333512
2.712414205e-05
2.571803307e-05
2.558375101e-05
2.604332812e-05
1.528148999e-05
0.0003628160569
9.642479964e-06
9.6751259e-06
6.650884568e-06
6.64229078e-06
4.598991915e-06
4.60103072e-06
5.519348139e-06
5.52758765e-06
3.810322608e-06
3.815783314e-06
3.165636929e-06
3.169720081e-06
2.624858317e-06
2.177612553e-06
6.640113227e-06
6.655339308e-06
8.012564989e-06
7.998177175e-06
6.645290366e-06
6.654252544e-06
9.676689432e-06
9.713330692e-06
9.692535697e-06
9.726617097e-06
1.172830206e-05
1.178663751e-05
2.807460797e-05
2.670387016e-05
2.885363388e-05
0.0003037461637
0.0003041340844
0.000322530928
9.112727909e-05
8.479933601e-05
8.445229774e-05
0.0003420697884
0.0003608889823
2.665452078e-05
2.74056807e-05
1.522706371e-05
1.58146532e-05
1.179657267e-05
1.173160451e-05
0.0003787822618
8.005297166e-06
8.02990106e-06
5.522761427e-06
5.51570684e-06
3.819035804e-06
3.820805382e-06
4.581342294e-06
4.588794662e-06
3.162499779e-06
3.167347941e-06
2.628217888e-06
2.631391462e-06
2.179280293e-06
5.512082947e-06
5.524688773e-06
6.648303417e-06
6.639382419e-06
5.520144013e-06
5.527329237e-06
8.02647648e-06
8.051679091e-06
8.045285012e-06
8.067769062e-06
9.715100694e-06
9.753698474e-06
2.83430083e-05
2.381480197e-05
2.730478237e-05
9.399115641e-05
0.0002939638036
9.40294386e-05
0.0003192391939
0.000339569977
9.303436574e-05
9.178390761e-05
2.642646143e-05
2.422415447e-05
2.48231284e-05
0.0003587898534
0.0003763721286
1.606266008e-05
1.737034661e-05
1.180806559e-05
1.194257322e-05
1.201443953e-05
1.220596493e-05
9.760767224e-06
9.716674536e-06
0.001001074276
6.646602477e-06
6.665221135e-06
4.586140729e-06
4.5803032e-06
3.171184116e-06
3.172741791e-06
3.803025231e-06
3.809720139e-06
2.624937491e-06
2.62919698e-06
2.182034332e-06
2.18447502e-06
4.576161885e-06
4.586576669e-06
5.51743639e-06
5.512118848e-06
4.58531614e-06
4.591166256e-06
6.659118952e-06
6.676285967e-06
6.678199415e-06
6.692818274e-06
8.05067811e-06
8.076039435e-06
2.167471638e-05
2.400116763e-05
9.09570147e-05
0.0003196465718
0.000322279142
9.771611779e-05
0.0003376590455
0.0003570620949
9.420208609e-05
2.603749412e-05
2.678178376e-05
2.728507428e-05
2.697178156e-05
2.679422953e-05
0.0003760726994
1.265189946e-05
1.237298684e-05
1.287508489e-05
1.34607052e-05
9.763100948e-06
9.854314333e-06
9.922027461e-06
1.004527109e-05
8.081167506e-06
8.051224805e-06
0.0009974683197
5.51886783e-06
5.533008639e-06
3.808469565e-06
3.803606548e-06
2.63311599e-06
2.634499448e-06
3.157127179e-06
3.163106838e-06
2.178833375e-06
2.182545906e-06
3.799486887e-06
3.808076135e-06
4.579695854e-06
4.576724566e-06
3.808673409e-06
3.813501262e-06
5.525693234e-06
5.537223599e-06
5.543564136e-06
5.552875508e-06
6.673628846e-06
6.690156544e-06
1.181560736e-05
1.547885772e-05
1.439821378e-05
9.931876325e-05
0.0003106641275
0.0003352827309
0.0001054866994
0.0001025444781
0.0001016732433
0.0003552502238
0.0003734399618
2.861095927e-05
2.836433511e-05
2.751530355e-05
3.040082661e-05
2.481779931e-05
1.555030321e-05
1.727667006e-05
1.034286409e-05
1.016253264e-05
1.051318497e-05
1.08946778e-05
8.078334578e-06
8.139379709e-06
8.199969565e-06
8.276875568e-06
6.693963865e-06
6.673596038e-06
0.0009948644487
4.582724452e-06
4.593498574e-06
3.162741883e-06
3.158668325e-06
2.186264767e-06
2.187499898e-06
2.621060738e-06
2.626374867e-06
3.154861105e-06
3.16193421e-06
3.801865465e-06
3.800396023e-06
3.163489541e-06
3.167519522e-06
4.585872604e-06
4.593459293e-06
4.601809869e-06
4.607563528e-06
5.533656041e-06
5.5443228e-06
9.461339385e-06
1.027765573e-05
1.230725743e-05
1.08855165e-05
1.047961034e-05
3.020791391e-05
3.211743072e-05
2.87751983e-05
0.000326608039
0.0003358333807
0.00035432078
0.000110631175
0.0001027539603
0.0001000531031
0.000373762426
2.7840613e-05
2.723336153e-05
2.264640878e-05
2.568201463e-05
1.175971427e-05
1.122387181e-05
1.225401895e-05
1.308784745e-05
8.472922264e-06
8.359006247e-06
8.60319283e-06
8.847703638e-06
6.688490433e-06
6.728566728e-06
6.780898853e-06
6.826587896e-06
5.547223336e-06
5.533324044e-06
0.0009934593102
0.0003712911336
3.805547789e-06
3.813778549e-06
2.626549493e-06
2.623122102e-06
2.17610952e-06
2.180811375e-06
2.619763718e-06
2.625580764e-06
3.156513308e-06
3.155982955e-06
2.627540532e-06
2.630935932e-06
3.806375398e-06
3.81121402e-06
3.820116892e-06
3.823506881e-06
4.589473083e-06
4.596277939e-06
8.137317752e-06
8.686096426e-06
9.842242969e-06
9.10528539e-06
8.853587115e-06
2.959439347e-05
3.037918359e-05
3.30229098e-05
0.0003118481274
0.0003353367491
0.0003534917594
0.0001096072694
0.0001015406075
9.322036974e-05
2.815019696e-05
2.533940652e-05
1.257128111e-05
1.563657267e-05
1.655759688e-05
9.710673036e-06
9.366352864e-06
1.008310485e-05
1.062585494e-05
6.953345435e-06
6.883879684e-06
7.053127135e-06
7.206228644e-06
5.540667635e-06
5.56622648e-06
5.610247467e-06
5.635121697e-06
4.598548104e-06
4.589012717e-06
0.0009938064561
0.000369652203
0.0003722817453
3.160291379e-06
3.166592482e-06
2.181296704e-06
2.178402839e-06
2.175536001e-06
2.180314712e-06
2.620963197e-06
2.620999787e-06
2.182351218e-06
2.185232989e-06
3.159706167e-06
3.162641673e-06
3.171259339e-06
3.173097644e-06
3.807127432e-06
3.811408952e-06
6.960918192e-06
7.32824061e-06
7.911649363e-06
7.61402299e-06
7.466503834e-06
2.721830919e-05
2.915494391e-05
3.222541796e-05
0.0003205160523
0.0003345594535
0.0001086015536
0.0003529270722
9.563143983e-05
9.279137661e-05
3.130178433e-05
2.242120282e-05
2.704811278e-05
9.816008431e-06
1.099412766e-05
1.243178572e-05
1.175047212e-05
1.291912105e-05
8.0284324e-06
7.814815491e-06
8.30896447e-06
8.654374556e-06
5.714819354e-06
5.674834305e-06
5.791295756e-06
5.883852248e-06
4.591836438e-06
4.607403371e-06
4.643656102e-06
4.654853765e-06
3.813232749e-06
3.806638559e-06
0.000996596892
0.0003680226383
0.0003704054963
2.624526523e-06
2.629357954e-06
2.176455142e-06
2.176815439e-06
2.623129631e-06
2.624758687e-06
2.632648953e-06
2.63348569e-06
3.158653494e-06
3.16130308e-06
5.929060233e-06
6.173815558e-06
6.388790023e-06
6.365493677e-06
6.28749584e-06
2.508585279e-05
2.779999312e-05
0.0001003103643
0.0001048339316
0.0003214168776
0.0001040477083
0.0001090414055
0.0003501364031
9.828313582e-05
3.049172108e-05
2.834728137e-05
2.83291457e-05
3.016128859e-05
1.33126122e-05
1.58272094e-05
2.188479162e-05
8.39562973e-06
9.203419039e-06
9.941452434e-06
9.772959721e-06
1.051749734e-05
6.644439186e-06
6.519296646e-06
6.855457452e-06
7.067867918e-06
4.702799058e-06
4.682120977e-06
4.761401345e-06
4.814257551e-06
3.806884552e-06
3.81563323e-06
3.844951337e-06
3.847353116e-06
3.162803661e-06
3.158191338e-06
0.001073524402
0.0003666255798
0.0003681290533
0.0003497211763
2.179648663e-06
2.183356768e-06
2.177832835e-06
2.178576574e-06
2.185542834e-06
2.185748568e-06
2.620987808e-06
2.622595169e-06
5.032764082e-06
5.195118531e-06
5.179671227e-06
5.320652579e-06
5.288259714e-06
2.716946471e-05
2.60742534e-05
0.000102780219
9.304602806e-05
0.0001066831188
0.0003370733389
0.0001153475264
3.165274093e-05
2.839190463e-05
2.787974731e-05
2.882016574e-05
1.033123179e-05
1.214604567e-05
1.256344645e-05
1.337384341e-05
1.573217824e-05
7.149630227e-06
7.702331002e-06
7.991367137e-06
8.132674574e-06
8.591861077e-06
5.503786739e-06
5.437856234e-06
5.662099669e-06
5.785609644e-06
3.874073848e-06
3.86581465e-06
3.91893174e-06
3.94611349e-06
3.15708084e-06
3.161234261e-06
3.184555978e-06
3.181481819e-06
2.623855041e-06
2.620579339e-06
0.0003287709034
0.000339622625
0.0003437290455
0.0003482355121
2.175087847e-06
2.176040245e-06
4.260056309e-06
4.367310612e-06
4.213956086e-06
4.446591589e-06
4.443384906e-06
2.269406022e-05
9.397539145e-05
0.0001024240236
3.078489923e-05
3.142045912e-05
0.0001070633184
0.0003255841266
0.0001160550076
2.548570061e-05
2.44937574e-05
2.786785936e-05
1.43811678e-05
8.736040934e-06
9.972798704e-06
1.003536336e-05
1.057115751e-05
1.248775675e-05
1.254733373e-05
6.067341907e-06
6.444649767e-06
6.453360203e-06
6.77078755e-06
7.039774292e-06
4.562267479e-06
4.535330267e-06
4.680556733e-06
4.745328137e-06
3.194203442e-06
3.193723982e-06
3.228473041e-06
3.239372506e-06
2.618861119e-06
2.619973314e-06
2.638231404e-06
2.631922816e-06
2.177115163e-06
2.174743279e-06
0.0003374088259
0.0003397340354
3.597812697e-06
3.668447547e-06
3.438550779e-06
3.715620122e-06
3.730405186e-06
1.633175473e-05
2.904473627e-05
2.722486843e-05
2.919259179e-05
3.206386406e-05
9.858500294e-05
3.346650894e-05
2.723399791e-05
0.0001059153005
0.0003230034923
0.0001156623577
2.045871116e-05
1.901952846e-05
2.259287131e-05
1.113406852e-05
1.340581305e-05
7.377780732e-06
8.212482396e-06
8.061854304e-06
8.966421397e-06
1.025218256e-05
1.006647747e-05
5.134385807e-06
5.391342201e-06
5.232355658e-06
5.639121462e-06
5.782929832e-06
3.784122398e-06
3.782265748e-06
3.871996598e-06
3.898596105e-06
2.63558891e-06
2.639786794e-06
2.661692777e-06
2.662558415e-06
2.172859513e-06
2.172012939e-06
2.186075039e-06
2.178029935e-06
0.0003452646224
3.032890869e-06
3.079357208e-06
2.813025818e-06
3.104468188e-06
3.129683664e-06
1.300094296e-05
2.608042099e-05
2.811893247e-05
2.464546656e-05
2.921697472e-05
9.703634413e-05
3.333260976e-05
3.320532787e-05
2.612281378e-05
0.0001046974756
0.0001145421701
0.0001140966824
1.767078588e-05
1.715703057e-05
1.49264846e-05
9.443194376e-06
1.098095171e-05
6.22415246e-06
6.780137479e-06
6.509807159e-06
7.588037434e-06
8.438403534e-06
8.119420506e-06
4.334938591e-06
4.509500917e-06
4.25722487e-06
4.698110419e-06
4.760971626e-06
3.140308134e-06
3.154013112e-06
3.205073413e-06
3.207463975e-06
2.176007372e-06
2.182828525e-06
2.195811365e-06
2.190764887e-06
0.0001022745839
0.0001056645159
2.552790277e-06
2.583429786e-06
2.306331727e-06
2.593602585e-06
2.624205439e-06
1.041028592e-05
2.49665513e-05
2.551124432e-05
2.292034263e-05
2.114479559e-05
2.906952415e-05
9.552779844e-05
3.262254656e-05
3.285940328e-05
2.898884922e-05
1.296238855e-05
0.0001026255881
1.471452933e-05
1.370234613e-05
1.179513863e-05
7.983327464e-06
9.014471542e-06
5.246333569e-06
5.609939277e-06
5.280687683e-06
6.409618955e-06
6.960829039e-06
6.580401865e-06
3.653125217e-06
3.771423891e-06
3.474291223e-06
3.915180715e-06
3.927007081e-06
2.60715024e-06
2.629956712e-06
2.654378675e-06
2.641982394e-06
0.0001013157143
0.0001017529915
2.146006518e-06
2.166371373e-06
2.166641148e-06
2.199327957e-06
8.379856193e-06
1.948486503e-05
2.485677091e-05
2.175402815e-05
1.9597985e-05
1.882881972e-05
9.420185898e-05
3.233820962e-05
3.199766218e-05
2.868145708e-05
2.888533324e-05
2.536043601e-05
1.043007051e-05
1.279386844e-05
1.205693405e-05
1.100025795e-05
9.378940623e-06
6.731575259e-06
7.41399822e-06
4.418926739e-06
4.65049829e-06
4.301006728e-06
5.405940245e-06
5.75282706e-06
5.355813782e-06
3.073831522e-06
3.15382006e-06
2.842694685e-06
3.263459523e-06
3.244322332e-06
2.16529166e-06
2.192864619e-06
2.199241702e-06
2.178362055e-06
9.979037146e-05
9.359626491e-05
6.777069537e-06
1.537055209e-05
2.065716717e-05
1.840426626e-05
1.797761922e-05
1.504658867e-05
3.147707322e-05
3.171668248e-05
2.837547654e-05
2.796629747e-05
2.56733167e-05
2.570699662e-05
2.024060752e-05
9.074770651e-06
1.063269073e-05
9.902360438e-06
8.871518907e-06
7.499356647e-06
5.664074862e-06
6.107364521e-06
3.719767445e-06
3.861400242e-06
3.515521575e-06
4.553686482e-06
4.76213214e-06
4.37544765e-06
2.58314148e-06
2.63712699e-06
2.331063823e-06
2.720736621e-06
2.683964288e-06
2.841922014e-05
2.92315138e-05
3.127880651e-05
3.127433783e-05
5.503457841e-06
1.2201529e-05
1.726602196e-05
1.700309218e-05
1.453557146e-05
1.208022671e-05
2.735129758e-05
2.758313453e-05
2.507331061e-05
2.416434588e-05
2.474108473e-05
2.455672496e-05
1.593701697e-05
7.832326006e-06
8.837742057e-06
8.148987456e-06
7.183373016e-06
6.026066815e-06
4.757619598e-06
5.037771352e-06
3.129656304e-06
3.210639217e-06
2.882369252e-06
3.831800014e-06
3.947455478e-06
3.58622666e-06
2.168529838e-06
2.204927197e-06
2.26862761e-06
2.222945688e-06
2.69993627e-05
2.674166147e-05
2.720784824e-05
2.689081395e-05
4.485292323e-06
9.740436393e-06
1.585557201e-05
1.383210706e-05
1.179307376e-05
9.737938143e-06
2.364961796e-05
2.378891417e-05
2.187966676e-05
2.124059724e-05
1.999965241e-05
1.22109267e-05
1.388140269e-05
6.71766689e-06
7.346640334e-06
6.717416336e-06
5.836628353e-06
4.863150182e-06
3.990568075e-06
4.160213011e-06
2.632059501e-06
2.672702399e-06
2.369565484e-06
3.221573773e-06
3.275961995e-06
2.947701231e-06
2.432616096e-05
2.392550476e-05
2.361717824e-05
2.367555938e-05
3.666901705e-06
7.814403088e-06
1.299842946e-05
1.128802771e-05
9.59632402e-06
7.877163572e-06
2.102627429e-05
2.103093909e-05
2.030566279e-05
2.029148557e-05
1.246806114e-05
1.572166348e-05
1.000832309e-05
1.157247474e-05
5.733098344e-06
6.107720234e-06
5.545269387e-06
4.75651433e-06
3.939382787e-06
3.34328836e-06
3.438807413e-06
2.212804905e-06
2.227129316e-06
2.706591599e-06
2.721380037e-06
2.428794076e-06
2.099876829e-05
2.152906508e-05
2.113182484e-05
2.1317793e-05
3.0058939e-06
6.296443217e-06
1.068345566e-05
9.236884291e-06
7.828478194e-06
6.390937134e-06
2.037223937e-05
2.032012876e-05
1.606725897e-05
1.619017264e-05
1.039040361e-05
1.244046574e-05
8.795837502e-06
9.653007713e-06
4.873461091e-06
5.078170292e-06
4.583195297e-06
3.886166742e-06
3.201403677e-06
2.798313346e-06
2.84478631e-06
2.272581097e-06
2.262571827e-06
2.084625327e-05
2.043990237e-05
2.040625854e-05
2.043283455e-05
2.469715196e-06
5.092434711e-06
8.800072929e-06
7.576010856e-06
6.399989007e-06
5.198246591e-06
1.643768087e-05
1.632089488e-05
1.278145137e-05
1.296840036e-05
8.660266769e-06
9.902418143e-06
7.660125581e-06
8.055720178e-06
4.129507543e-06
4.222488968e-06
3.791901471e-06
3.181961966e-06
2.608871754e-06
2.340319273e-06
2.354970343e-06
1.675624648e-05
1.656806388e-05
1.651638983e-05
1.656778193e-05
4.131980516e-06
7.262319077e-06
6.226066506e-06
5.241633029e-06
4.237186758e-06
1.328539432e-05
1.314371981e-05
1.021476509e-05
1.042232107e-05
7.219173569e-06
7.92356232e-06
6.623963025e-06
6.725413057e-06
3.490074592e-06
3.511230989e-06
3.139919699e-06
2.610151037e-06
1.348449059e-05
1.34327427e-05
1.338084789e-05
1.343971272e-05
3.361937258e-06
6.002847106e-06
5.125248865e-06
4.299478995e-06
3.460029621e-06
1.075261453e-05
1.060866604e-05
8.196080768e-06
8.399650024e-06
6.018584443e-06
6.369350134e-06
5.696039489e-06
5.616670648e-06
2.943439908e-06
2.919959393e-06
2.601916339e-06
1.086196826e-05
1.089278295e-05
1.084911154e-05
1.090612565e-05
2.74182423e-06
4.96852021e-06
4.225048981e-06
3.531187882e-06
2.82968239e-06
8.712714232e-06
8.578472236e-06
6.598740063e-06
6.785496604e-06
5.018182977e-06
5.140486361e-06
4.876315596e-06
4.692038212e-06
2.478141884e-06
2.428388444e-06
8.756339031e-06
8.834442298e-06
8.802074912e-06
8.852734351e-06
4.117125793e-06
3.487124644e-06
2.903297609e-06
7.066499657e-06
6.947505767e-06
5.328048558e-06
5.492343536e-06
4.184455869e-06
4.163029423e-06
4.159602856e-06
3.920551621e-06
7.063403847e-06
7.165941355e-06
7.145050791e-06
7.187656365e-06
3.414920611e-06
2.880978815e-06
5.735790105e-06
5.633808824e-06
4.312521038e-06
4.45292989e-06
3.489538975e-06
3.381402162e-06
3.537917955e-06
3.276569823e-06
5.700744966e-06
5.81314382e-06
5.802473961e-06
5.836884262e-06
2.834789473e-06
4.658644034e-06
4.573330942e-06
3.497681521e-06
3.615141415e-06
2.910252153e-06
2.753445005e-06
3.002013095e-06
2.738827842e-06
4.602920765e-06
4.716117744e-06
4.713834297e-06
4.740708695e-06
3.78575889e-06
3.715695968e-06
2.841645145e-06
2.938284693e-06
2.427300183e-06
2.542330754e-06
3.717793855e-06
3.826370671e-06
3.830544173e-06
3.850889212e-06
3.077744138e-06
3.021047883e-06
3.003720887e-06
3.104653799e-06
3.113499344e-06
3.128413597e-06
0.0002589755843
0.0002489535951
0.0002585592603
0.0002485711192
0.0002378367802
0.0002579731026
0.0002375113745
0.0002480159005
0.0002257735049
0.0002571713537
0.0002370198132
0.0002255254917
0.0002472306959
8.101879606e-05
8.098839892e-05
0.0002561108578
0.0002362864185
0.0002251333274
8.091208417e-05
8.095671876e-05
0.0002461639426
7.453279029e-05
7.451370647e-05
0.0002547540239
0.0002245029659
0.0002352268709
8.085460916e-05
8.078678269e-05
7.445720071e-05
7.448876071e-05
0.0002447869579
2.533604363e-05
2.532890975e-05
2.532283606e-05
2.533166791e-05
0.0002530228319
8.056980006e-05
0.000223486814
8.067918027e-05
0.0002338039522
7.441584865e-05
7.436034743e-05
2.530510785e-05
2.531867991e-05
2.532605072e-05
2.531510342e-05
0.0002431067268
2.235420459e-05
2.235299628e-05
2.234904169e-05
2.235062896e-05
0.0002512528747
8.036420301e-05
7.418165572e-05
0.0002219057788
8.017530133e-05
7.428664696e-05
0.0002321066493
2.530885952e-05
2.529195539e-05
2.527435447e-05
2.529550602e-05
2.233709265e-05
2.233996859e-05
2.234600824e-05
2.234388815e-05
0.0002404478969
1.967581611e-05
1.967457764e-05
1.967161324e-05
1.967324674e-05
0.00024950312
7.403920353e-05
2.521608587e-05
2.525020125e-05
7.945349936e-05
0.0002197749105
7.978490836e-05
7.382718243e-05
2.527680699e-05
2.525007312e-05
0.0002308735694
2.233196271e-05
2.232796678e-05
2.231539018e-05
2.232111913e-05
1.966245974e-05
1.966532535e-05
1.966984084e-05
1.966767973e-05
0.0002394828752
1.786873659e-05
1.786783565e-05
1.786551134e-05
1.786677133e-05
0.0002476268978
2.521106244e-05
2.516674044e-05
2.227181787e-05
2.228449734e-05
7.874753922e-05
7.309765933e-05
0.0002175489469
7.825398818e-05
7.353564332e-05
2.509450208e-05
2.515301952e-05
2.230601711e-05
2.229760889e-05
0.0002231036736
1.965929593e-05
1.965541418e-05
1.964561431e-05
1.965103463e-05
1.785820583e-05
1.786042861e-05
1.786404809e-05
1.786236968e-05
0.0002382994309
1.763835958e-05
1.763761791e-05
1.763562636e-05
1.763670089e-05
0.000244210757
2.22528958e-05
2.223336755e-05
1.961121688e-05
1.962256468e-05
7.250999605e-05
2.482377014e-05
2.493186471e-05
7.699488e-05
0.0002256487769
7.720744656e-05
7.167217707e-05
2.506474571e-05
2.498571981e-05
2.217487767e-05
2.220547563e-05
1.963937875e-05
1.963164046e-05
0.0002333077262
1.785561507e-05
1.785261801e-05
1.784476322e-05
1.784903752e-05
1.762909546e-05
1.763114366e-05
1.763415231e-05
1.763280431e-05
0.0002372015044
1.454248879e-05
1.454209119e-05
1.454084762e-05
1.454149631e-05
0.0002418074259
1.959760633e-05
1.958047695e-05
1.781701133e-05
1.782604221e-05
2.473087318e-05
2.457987157e-05
2.194463193e-05
2.202027016e-05
7.371672329e-05
6.939113925e-05
7.452851915e-05
7.69475763e-05
7.180425924e-05
7.069618715e-05
2.422117961e-05
2.443398826e-05
2.2132698e-05
2.20844609e-05
1.953316573e-05
1.955956754e-05
1.783961797e-05
1.783347974e-05
0.00022511332
8.122273952e-05
1.762703723e-05
1.762455467e-05
1.761803049e-05
1.762160983e-05
1.453601703e-05
1.453766127e-05
1.453949788e-05
1.453878552e-05
0.0002267341803
1.198993033e-05
1.19897523e-05
1.198900817e-05
1.198937639e-05
0.0002392262888
1.780585478e-05
1.779205444e-05
1.759482025e-05
1.760240677e-05
2.184662374e-05
2.17290856e-05
1.934140484e-05
1.940717941e-05
6.816614932e-05
2.324782677e-05
2.351068163e-05
7.593609241e-05
7.423631403e-05
6.740249475e-05
2.400699606e-05
2.372196638e-05
2.139483877e-05
2.157852872e-05
1.950053382e-05
1.945910173e-05
1.775317066e-05
1.777478057e-05
1.761359701e-05
1.760843423e-05
0.000231796533
8.093188685e-05
8.082768102e-05
1.453483873e-05
1.453322569e-05
1.452894985e-05
1.453132262e-05
1.198542524e-05
1.19867447e-05
1.198780865e-05
1.198749865e-05
0.0002344259199
9.885358627e-06
9.88531704e-06
9.884902671e-06
9.88508919e-06
0.0002290671134
1.758562776e-05
1.757409627e-05
1.451341173e-05
1.451853168e-05
1.925951294e-05
1.915735839e-05
1.759142378e-05
1.764812446e-05
2.332072559e-05
2.330690357e-05
2.039989567e-05
2.063042467e-05
7.36789371e-05
7.60646939e-05
6.979377421e-05
2.301433379e-05
2.334430609e-05
2.116703206e-05
2.090997254e-05
1.886605006e-05
1.903009774e-05
1.772608051e-05
1.769201383e-05
1.754075384e-05
1.755946342e-05
1.45257523e-05
1.452226156e-05
7.746241408e-05
7.49723523e-05
7.751965441e-05
7.573365764e-05
7.248610088e-05
1.198481281e-05
1.198378502e-05
1.19810235e-05
1.198258021e-05
9.882239623e-06
9.883298049e-06
9.88386014e-06
9.883796967e-06
0.0002341898268
8.10544085e-05
8.150165267e-06
8.150205548e-06
8.150006122e-06
8.150076525e-06
0.0002347039728
1.450755446e-05
1.450012112e-05
1.197068519e-05
1.197412993e-05
1.751868677e-05
1.742698812e-05
1.739634745e-05
1.744871196e-05
2.032573854e-05
2.097051428e-05
1.769598063e-05
1.805903208e-05
7.025599441e-05
2.468600049e-05
2.38325461e-05
2.199255534e-05
2.074699945e-05
2.234172403e-05
2.094401302e-05
2.126456965e-05
1.865319483e-05
1.838289003e-05
1.717003602e-05
1.731332089e-05
1.751670521e-05
1.748652854e-05
1.447831961e-05
1.449058905e-05
1.197870523e-05
1.197635487e-05
7.096349538e-05
7.593841903e-05
7.475691823e-05
7.597256587e-05
7.191696407e-05
9.881984947e-06
9.881348435e-06
9.879602267e-06
9.880608425e-06
8.148024474e-06
8.148872214e-06
8.149113593e-06
8.149196852e-06
7.570901264e-05
7.619439338e-05
7.84499435e-05
7.750824566e-05
6.71953054e-06
6.719617115e-06
6.719555059e-06
6.719553002e-06
0.000233174183
8.089229627e-05
1.196703191e-05
1.196231761e-05
9.872781749e-06
9.87508825e-06
1.732466562e-05
1.723025333e-05
1.438366041e-05
1.441824986e-05
1.735846889e-05
1.720981706e-05
1.571359708e-05
1.625780039e-05
2.432423922e-05
2.393786921e-05
2.236153845e-05
1.985428874e-05
2.234399601e-05
1.859258698e-05
2.053543289e-05
2.078909932e-05
1.696583013e-05
1.666870327e-05
1.693926269e-05
1.710393034e-05
1.446222996e-05
1.444271692e-05
1.19482156e-05
1.195618375e-05
9.877913348e-06
9.876339779e-06
2.425763633e-05
7.224618366e-05
2.481507983e-05
7.4125899e-05
2.405376347e-05
2.493276172e-05
7.247200472e-05
2.293542373e-05
2.172614606e-05
2.282567584e-05
8.147988682e-06
8.147611848e-06
8.146543099e-06
8.147179102e-06
6.718079269e-06
6.718758475e-06
6.718799286e-06
6.71896301e-06
7.682356974e-05
7.441571604e-05
7.607940619e-05
5.540005863e-06
5.540115664e-06
5.540138627e-06
5.54009409e-06
7.351047489e-05
7.215455863e-05
7.796049089e-05
7.18876702e-05
9.870573319e-06
9.867651319e-06
8.14209565e-06
8.143629817e-06
1.433645258e-05
1.427429665e-05
1.188681795e-05
1.19094355e-05
1.497809046e-05
1.390338206e-05
1.503505394e-05
1.582245899e-05
2.179137083e-05
2.100611979e-05
2.090220937e-05
1.746620349e-05
1.782543484e-05
1.592124792e-05
1.620194039e-05
1.057876879e-05
1.674168711e-05
1.639678084e-05
1.407924106e-05
1.419038484e-05
1.193749341e-05
1.192505525e-05
9.858662294e-06
9.863769402e-06
8.145306458e-06
8.144261487e-06
2.316743165e-05
2.201172236e-05
2.236434093e-05
2.293540693e-05
2.431292909e-05
2.228133107e-05
7.3087932e-05
2.508461941e-05
2.284992041e-05
2.333702672e-05
2.011705325e-05
2.063862388e-05
6.718172252e-06
6.717965955e-06
6.717344868e-06
6.717733752e-06
5.539040331e-06
5.53958383e-06
5.53950468e-06
5.539706907e-06
7.340753413e-05
7.413052132e-05
2.477952601e-05
2.405568338e-05
7.174950566e-05
4.56752047e-06
4.567638993e-06
4.567712057e-06
4.567644422e-06
7.564924087e-05
7.63437259e-05
8.262978113e-05
7.558852792e-05
8.140824279e-06
8.139074195e-06
6.714492352e-06
6.715504292e-06
1.185615373e-05
1.181580283e-05
9.819406349e-06
9.833988402e-06
1.392009965e-05
1.202170466e-05
1.26306864e-05
1.324321427e-05
1.996457508e-05
1.85508198e-05
2.081674195e-05
1.54291615e-05
1.435332807e-05
1.417849501e-05
1.055759963e-05
1.31562959e-05
8.580481085e-06
1.394151354e-05
1.368085109e-05
1.168617124e-05
1.176069444e-05
9.851552683e-06
9.843780052e-06
8.13345959e-06
8.136674743e-06
6.716435118e-06
6.715748953e-06
2.106028728e-05
1.875775932e-05
2.320777302e-05
2.006233908e-05
2.311172207e-05
2.035373719e-05
2.389243999e-05
2.304497433e-05
2.29561071e-05
2.161599127e-05
1.948602799e-05
1.934468067e-05
1.709387547e-05
5.539203273e-06
5.539107434e-06
5.538778587e-06
5.539003779e-06
4.56689611e-06
4.567330431e-06
4.567183948e-06
4.567398938e-06
2.364157044e-05
2.255848321e-05
2.380741748e-05
2.438356834e-05
7.32557587e-05
2.487608741e-05
2.291398628e-05
3.765736916e-06
3.765854986e-06
3.765955151e-06
3.765876631e-06
2.267047477e-05
2.379508865e-05
2.231109315e-05
2.368191205e-05
2.453452851e-05
2.495116375e-05
2.411888043e-05
2.555566939e-05
6.713820324e-06
6.712828054e-06
5.536992434e-06
5.537652528e-06
9.799879619e-06
9.774207738e-06
8.10885979e-06
8.118074828e-06
1.17693517e-05
1.034263385e-05
1.058769231e-05
1.106138551e-05
1.954182316e-05
1.593695568e-05
1.064057683e-05
1.26849707e-05
1.217028974e-05
1.183065993e-05
9.099576354e-06
1.071760543e-05
7.83159307e-06
1.158975139e-05
1.139274906e-05
9.689094723e-06
9.73859893e-06
8.128776738e-06
8.124055998e-06
6.7094236e-06
6.711396411e-06
5.538106576e-06
5.537663145e-06
2.054389546e-05
1.509316917e-05
2.068779774e-05
2.206716914e-05
1.767993622e-05
2.218919319e-05
1.943521137e-05
2.349068207e-05
2.094224182e-05
2.20609646e-05
1.720577755e-05
9.752692183e-06
1.378717737e-05
4.567091654e-06