/*--------------------------------*- C++ -*----------------------------------*\
  =========                 |
  \\      /  F ield         | OpenFOAM: The Open Source CFD Toolbox
   \\    /   O peration     | Website:  https://openfoam.org
    \\  /    A nd           | Version:  8
     \\/     M anipulation  |
\*---------------------------------------------------------------------------*/






FoamFile
{
    version     2.0;
    format      ascii;
    class       volScalarField;
    location    "0";
    object      pDDES;
}
// * * * * * * * * * * * * * * * * * * * * * * * * * * * * * * * * * * * * * //

dimensions      [0 2 -2 0 0 0 0];


internalField   nonuniform List<scalar> 
16537
(
-1.036434696e-06
-3.677177574e-06
9.072701687e-06
-4.45828482e-06
6.122249488e-06
1.763017099e-05
-3.94100698e-06
3.769266641e-06
1.417561907e-05
2.564317401e-05
-2.787670155e-06
2.794177817e-06
1.106691434e-05
2.185747871e-05
3.300821845e-05
-1.450007176e-06
2.674476491e-06
9.133025742e-06
1.821269143e-05
2.905539441e-05
3.971113256e-05
-4.460014793e-07
2.885028152e-06
8.052769772e-06
1.559645534e-05
2.509829574e-05
3.569417458e-05
4.580528548e-05
2.007566167e-07
3.144577249e-06
7.446743894e-06
1.380007416e-05
2.204106568e-05
3.157330502e-05
4.179591997e-05
5.13042105e-05
3.487192544e-07
3.284278137e-06
7.060323242e-06
1.254460494e-05
1.973808867e-05
2.82447545e-05
3.760688924e-05
4.734841059e-05
5.626105849e-05
2.01553263e-07
3.304477104e-06
6.760712495e-06
1.162406625e-05
1.79765666e-05
2.560733265e-05
3.412442311e-05
4.315587648e-05
5.237590085e-05
6.07709444e-05
-2.350817567e-07
3.190982852e-06
6.4902124e-06
1.090987735e-05
1.661691931e-05
2.350296927e-05
3.128150274e-05
3.95957577e-05
4.820757022e-05
5.69632175e-05
6.486347411e-05
-8.189393839e-07
2.985670108e-06
6.231691714e-06
1.033861918e-05
1.55510661e-05
2.183354627e-05
2.89663385e-05
3.66234417e-05
4.460584751e-05
5.283280552e-05
6.114124699e-05
6.854982348e-05
-1.404021077e-06
2.753258741e-06
6.008292985e-06
9.874488569e-06
1.471229825e-05
2.049532122e-05
2.70810724e-05
3.415424726e-05
4.154193084e-05
4.920961874e-05
5.706507363e-05
6.492385e-05
7.183606067e-05
-1.886794735e-06
2.575425015e-06
5.847266493e-06
9.545051398e-06
1.405798776e-05
1.943901952e-05
2.553211925e-05
3.210238356e-05
3.895318514e-05
4.607790106e-05
5.343920202e-05
6.091751129e-05
6.831301289e-05
7.471660501e-05
-2.126415211e-06
2.582271918e-06
5.802308806e-06
9.359380783e-06
1.360861188e-05
1.863089346e-05
2.429442429e-05
3.039847252e-05
3.677577115e-05
4.339566658e-05
5.026147846e-05
5.730432895e-05
6.438485434e-05
7.132181054e-05
7.7688499e-05
-2.011169727e-06
2.75577213e-06
5.965386663e-06
9.354449503e-06
1.336100013e-05
1.806723958e-05
2.334146848e-05
2.902298729e-05
3.496168938e-05
4.111835733e-05
4.750897642e-05
5.409975347e-05
6.079371087e-05
6.745467545e-05
7.425295189e-05
8.053264173e-05
7.915603055e-05
-1.39210988e-06
3.291009534e-06
6.380246305e-06
9.61024034e-06
1.335218985e-05
1.77356651e-05
2.265847615e-05
2.794995453e-05
3.348514656e-05
3.921031748e-05
4.515125329e-05
5.12980987e-05
5.75797385e-05
6.389151531e-05
7.041112258e-05
7.69039325e-05
7.525568799e-05
8.287817036e-05
8.13951483e-05
-1.873248721e-07
4.245382115e-06
7.158924745e-06
1.015848466e-05
1.363048978e-05
1.767124377e-05
2.223945012e-05
2.716767449e-05
3.23216882e-05
3.764651046e-05
4.31616063e-05
4.887826799e-05
5.47491145e-05
6.068384391e-05
6.687608402e-05
7.30394022e-05
7.146846474e-05
7.869148976e-05
7.67952879e-05
8.438026998e-05
8.313718718e-05
1.619561772e-06
5.649806553e-06
8.341651665e-06
1.106871787e-05
1.421383331e-05
1.790579699e-05
2.210453567e-05
2.667317131e-05
3.146287054e-05
3.640788782e-05
4.15203067e-05
4.682078725e-05
5.228639202e-05
5.784155655e-05
6.368320464e-05
6.945072528e-05
6.802844291e-05
7.491778524e-05
7.31549444e-05
8.009779413e-05
7.818949234e-05
8.526348392e-05
8.367323608e-05
4.246161097e-06
7.678002476e-06
9.975019566e-06
1.237051129e-05
1.514818541e-05
1.845809857e-05
2.227343066e-05
2.647378278e-05
3.090616883e-05
3.54846743e-05
4.021235509e-05
4.51121341e-05
5.01778668e-05
5.535283708e-05
6.083772314e-05
6.620056229e-05
6.491723616e-05
7.138179353e-05
6.97593714e-05
7.640492549e-05
7.462664507e-05
8.122865984e-05
7.946770347e-05
8.671770047e-05
8.417005301e-05
7.326393188e-06
1.026056725e-05
1.213108499e-05
1.409540164e-05
1.646661076e-05
1.935339969e-05
2.276244595e-05
2.658039739e-05
3.065296551e-05
3.487310823e-05
3.922764154e-05
4.374108539e-05
4.841540067e-05
5.321027493e-05
5.833413888e-05
6.328175368e-05
6.21410145e-05
6.813483924e-05
6.666345871e-05
7.287910557e-05
7.12113906e-05
7.762396854e-05
7.580588135e-05
8.181870362e-05
7.999873196e-05
8.677483129e-05
8.465103747e-05
1.22079166e-06
1.11638692e-05
1.341368352e-05
1.47658784e-05
1.62778033e-05
1.818233613e-05
2.061518535e-05
2.358875281e-05
2.700643927e-05
3.070923412e-05
3.457216735e-05
3.856127296e-05
4.269832789e-05
4.699125566e-05
5.140975554e-05
5.617129864e-05
6.069934898e-05
5.97030994e-05
6.520770694e-05
6.389921327e-05
6.959685561e-05
6.807765021e-05
7.405289944e-05
7.2367744e-05
7.815855497e-05
7.634281064e-05
8.276983863e-05
8.080038242e-05
8.666694339e-05
8.469594468e-05
5.050367236e-06
-4.311696557e-06
1.7080205e-05
1.557999713e-05
1.786825123e-05
1.890179374e-05
2.031348231e-05
2.225481876e-05
2.47694843e-05
2.7763861e-05
3.108343662e-05
3.458421997e-05
3.82110411e-05
4.197865928e-05
4.589788659e-05
4.994632036e-05
5.434637569e-05
5.845697888e-05
5.760451313e-05
6.261235103e-05
6.147081876e-05
6.663367822e-05
6.527687947e-05
7.07610161e-05
6.923286128e-05
7.458810433e-05
7.290281064e-05
7.892434223e-05
7.707811892e-05
8.289099787e-05
8.09138437e-05
8.670829266e-05
8.478054951e-05
-1.971745633e-06
-4.369371709e-08
9.491133824e-06
-1.554549817e-05
2.144867722e-05
2.125074934e-05
2.036068145e-05
2.194177068e-05
2.285049595e-05
2.428681546e-05
2.631349344e-05
2.886336006e-05
3.178313636e-05
3.491358439e-05
3.81772079e-05
4.157908552e-05
4.51302476e-05
4.881419591e-05
5.285619409e-05
5.655157292e-05
5.584102473e-05
6.035451588e-05
5.937803508e-05
6.350198237e-05
6.234937609e-05
6.778704119e-05
6.642359949e-05
7.129408914e-05
6.97643336e-05
7.530100993e-05
7.360026939e-05
7.901162462e-05
7.715448737e-05
8.301647904e-05
8.093225915e-05
8.595151303e-05
8.446355059e-05
-1.332278953e-05
-1.093816354e-05
2.628602033e-06
1.429946406e-05
4.828668352e-06
-2.102361395e-05
2.540270907e-05
2.545722236e-05
2.579087777e-05
2.544854033e-05
2.577549094e-05
2.670346294e-05
2.822777788e-05
3.031196684e-05
3.281429599e-05
3.556410593e-05
3.846097388e-05
4.14982751e-05
4.468497718e-05
4.800852184e-05
5.169713404e-05
5.497964594e-05
5.441149915e-05
5.843099643e-05
5.762093497e-05
6.127511733e-05
6.028827192e-05
6.459563883e-05
6.343849964e-05
6.831685459e-05
6.695141201e-05
7.198015373e-05
7.044159429e-05
7.537066995e-05
7.366592035e-05
7.902360812e-05
7.716463006e-05
8.289607649e-05
8.092667849e-05
-1.872467874e-05
-1.623561911e-05
-8.365736903e-06
7.787236427e-06
1.014091595e-05
1.965971569e-05
-5.671675808e-06
-2.619240149e-05
2.909182331e-05
2.925317131e-05
2.98380437e-05
3.071067476e-05
3.089825259e-05
2.949247573e-05
3.050917076e-05
3.211256262e-05
3.418061533e-05
3.653847307e-05
3.906340135e-05
4.17353076e-05
4.455982344e-05
4.752566383e-05
5.086303645e-05
5.374076136e-05
5.331116336e-05
5.684170901e-05
5.619557851e-05
5.938151662e-05
5.856378266e-05
6.236469198e-05
6.137535092e-05
6.512975961e-05
6.396972458e-05
6.898576248e-05
6.761277473e-05
7.204354915e-05
7.050288696e-05
7.53794593e-05
7.367363287e-05
7.901723438e-05
7.715806714e-05
-2.37932436e-05
-2.118726479e-05
-1.35650962e-05
-1.711194386e-06
1.230236876e-06
1.334685294e-05
1.591770342e-05
2.522634895e-05
-1.075776345e-05
-3.262249811e-05
3.264636325e-05
3.277059295e-05
3.345010191e-05
3.454867328e-05
3.591707718e-05
3.672217281e-05
3.314781497e-05
3.426232797e-05
3.588257823e-05
3.783703141e-05
3.998470493e-05
4.228896432e-05
4.475242167e-05
4.736280243e-05
5.035263166e-05
5.282632264e-05
5.253478594e-05
5.558331759e-05
5.510140181e-05
5.782247172e-05
5.716910164e-05
6.046915951e-05
5.964629599e-05
6.289288285e-05
6.189974374e-05
6.57501223e-05
6.458209828e-05
6.90449524e-05
6.767032028e-05
7.205057773e-05
7.050921704e-05
7.537283818e-05
7.366732461e-05
-3.009041393e-05
-1.840445475e-05
-2.73168589e-05
-6.422327715e-06
-3.337929456e-06
4.30177306e-06
7.411581919e-06
1.924581738e-05
3.122251655e-05
2.192969259e-05
-1.547761894e-05
3.61325292e-05
3.61441962e-05
3.677662608e-05
3.795737575e-05
3.954764543e-05
4.136691132e-05
4.246758908e-05
3.675299376e-05
3.791700146e-05
3.945804201e-05
4.122305836e-05
4.315751357e-05
4.525993791e-05
4.751681263e-05
5.016128489e-05
5.223644257e-05
5.208183211e-05
5.46515148e-05
5.432828402e-05
5.659519957e-05
5.610691005e-05
5.890654575e-05
5.824927212e-05
6.099025632e-05
6.016406769e-05
6.349769683e-05
6.249731086e-05
6.580564514e-05
6.463571481e-05
6.905078044e-05
6.767560262e-05
7.204450958e-05
7.050337445e-05
-2.436594878e-05
-1.098874782e-05
-7.805173482e-06
-1.661391593e-07
3.001169944e-06
1.056342808e-05
3.730610842e-05
2.827803837e-05
2.541446884e-05
1.380836056e-05
-2.127738117e-05
3.957280205e-05
3.944543278e-05
3.995615771e-05
4.107699351e-05
4.273899322e-05
4.479432391e-05
4.705264291e-05
4.881717905e-05
4.027570685e-05
4.139691737e-05
4.277449989e-05
4.433784488e-05
4.607906521e-05
4.798388909e-05
5.02851035e-05
5.196606799e-05
5.194601181e-05
5.404329931e-05
5.387782949e-05
5.569134737e-05
5.536422759e-05
5.767464245e-05
5.718119064e-05
5.942087591e-05
5.876035357e-05
6.158005272e-05
6.074652993e-05
6.354971993e-05
6.254803156e-05
6.638367631e-05
6.46398039e-05
6.904525799e-05
6.767033483e-05
-1.657994289e-05
-1.326279744e-05
-4.587850526e-06
-1.298850975e-06
6.244220003e-06
4.384284694e-05
3.188681512e-05
3.490508607e-05
1.922896627e-05
1.582607911e-05
9.559269529e-06
4.294695827e-05
4.270564386e-05
4.306137998e-05
4.405145955e-05
4.563912807e-05
4.775857815e-05
5.025294013e-05
5.291194248e-05
5.505057925e-05
4.364501365e-05
4.463253572e-05
4.582487236e-05
4.720575453e-05
4.875982268e-05
5.071945634e-05
5.201120075e-05
5.212384713e-05
5.375239925e-05
5.374278771e-05
5.511174822e-05
5.494412835e-05
5.67686875e-05
5.643754776e-05
5.818216596e-05
5.768550182e-05
5.999610585e-05
5.93279874e-05
6.162875798e-05
6.07939146e-05
6.355343794e-05
6.255143671e-05
6.637864863e-05
6.516995199e-05
-9.869317182e-06
-6.422343176e-06
2.054686774e-06
5.020599565e-05
3.867596752e-05
4.175720824e-05
2.272258826e-05
2.636654244e-05
1.487148165e-05
1.138801144e-05
5.466230959e-06
4.619034371e-05
4.591551624e-05
4.612961493e-05
4.695205644e-05
4.839910616e-05
5.042910198e-05
5.298176984e-05
5.587799751e-05
5.888338637e-05
6.127497181e-05
4.678780533e-05
4.761051969e-05
4.863377762e-05
4.98395093e-05
5.145897012e-05
5.236729703e-05
5.260903345e-05
5.377543857e-05
5.392101593e-05
5.484954818e-05
5.483759014e-05
5.618618161e-05
5.601454177e-05
5.727001917e-05
5.693558342e-05
5.874231647e-05
5.823867104e-05
6.004182069e-05
5.937235983e-05
6.163184298e-05
6.079676314e-05
6.404478336e-05
6.300357927e-05
-2.937181307e-06
5.674142812e-05
4.552770042e-05
4.860401532e-05
2.998927448e-05
3.365285374e-05
1.850594708e-05
2.221109389e-05
1.094281924e-05
9.006775144e-06
6.036507898e-07
4.922815788e-05
4.901825741e-05
4.91621613e-05
4.9819384e-05
5.10880418e-05
5.296671588e-05
5.541420978e-05
5.836961645e-05
6.161571946e-05
6.492916873e-05
6.78843644e-05
4.968490248e-05
5.035424692e-05
5.121548747e-05
5.249757305e-05
5.302594218e-05
5.339564814e-05
5.411046004e-05
5.440297537e-05
5.489827163e-05
5.504251021e-05
5.592087109e-05
5.59050095e-05
5.668097583e-05
5.650593084e-05
5.781648724e-05
5.747531395e-05
5.878561933e-05
5.828056601e-05
6.004415991e-05
5.937477181e-05
6.204619422e-05
6.117176963e-05
5.241986946e-05
5.546462489e-05
3.732278856e-05
4.096034536e-05
2.595733531e-05
2.970516834e-05
1.467468974e-05
1.84891378e-05
6.255615062e-06
4.253573479e-06
5.203549881e-05
5.193880497e-05
5.211099051e-05
5.266442167e-05
5.374785906e-05
5.543889711e-05
5.772299482e-05
6.056067286e-05
6.387695612e-05
6.742617552e-05
7.101461961e-05
7.406895747e-05
5.235687422e-05
5.287850217e-05
5.382791642e-05
5.398292706e-05
5.447650256e-05
5.47421987e-05
5.518395483e-05
5.525726738e-05
5.554886229e-05
5.596725896e-05
5.610637891e-05
5.640877134e-05
5.638983203e-05
5.72137651e-05
5.703232091e-05
5.785707253e-05
5.75150043e-05
5.878829688e-05
5.828291614e-05
6.004653187e-05
5.937679816e-05
4.461548087e-05
4.822968549e-05
3.348112659e-05
3.723189729e-05
2.232452971e-05
2.617918653e-05
1.009973948e-05
1.402432736e-05
5.462895206e-05
5.464721471e-05
5.490287731e-05
5.544822852e-05
5.639791198e-05
5.788668932e-05
5.997406697e-05
6.263631803e-05
6.583066715e-05
6.946281064e-05
7.3279356e-05
7.710045611e-05
8.04083611e-05
5.481811968e-05
5.543986117e-05
5.523028085e-05
5.584557221e-05
5.567106564e-05
5.625589256e-05
5.59125765e-05
5.635382695e-05
5.631917884e-05
5.660743773e-05
5.644871635e-05
5.658416194e-05
5.692871491e-05
5.690310354e-05
5.725161827e-05
5.706891898e-05
5.785875692e-05
5.751668505e-05
5.878996308e-05
5.828443682e-05
4.099166108e-05
4.472088403e-05
3.004094287e-05
3.388343248e-05
1.795842036e-05
2.19032645e-05
5.702144335e-05
5.71552664e-05
5.750355558e-05
5.810118091e-05
5.90076088e-05
6.03359731e-05
6.220652722e-05
6.466315972e-05
6.767348532e-05
7.118620852e-05
7.509417628e-05
7.914115849e-05
8.315492596e-05
8.65944603e-05
5.732190402e-05
5.675943976e-05
5.748845797e-05
5.688685633e-05
5.761024659e-05
5.686149962e-05
5.744622467e-05
5.696945664e-05
5.7404166e-05
5.679361493e-05
5.707835953e-05
5.695525761e-05
5.708343815e-05
5.69643089e-05
5.693720595e-05
5.725262599e-05
5.706980664e-05
5.785982648e-05
5.751779099e-05
3.773110075e-05
4.157155854e-05
2.582871457e-05
2.975141251e-05
5.946174133e-05
5.947328464e-05
5.991946819e-05
6.058613872e-05
6.151268462e-05
6.276454224e-05
6.445119652e-05
6.667824346e-05
6.947576185e-05
7.280023419e-05
7.659452967e-05
8.073955541e-05
8.497985982e-05
8.914202772e-05
9.281535313e-05
5.855507334e-05
5.939453695e-05
5.838013385e-05
5.923561912e-05
5.809465802e-05
5.881726975e-05
5.791029616e-05
5.848657747e-05
5.743657312e-05
5.786713882e-05
5.728761244e-05
5.756473911e-05
5.698813038e-05
5.711497215e-05
5.696469452e-05
5.693769708e-05
5.725307346e-05
5.706951197e-05
3.369010301e-05
3.764713983e-05
6.060740998e-05
6.155148003e-05
6.184450467e-05
6.215746544e-05
6.29035203e-05
6.387439498e-05
6.511474203e-05
6.669358118e-05
6.871607184e-05
7.127271965e-05
7.438049943e-05
7.79857437e-05
8.202495519e-05
8.636751591e-05
9.076407878e-05
9.501458408e-05
9.877781849e-05
6.013832171e-05
6.112016854e-05
5.960143608e-05
6.045642294e-05
5.913240238e-05
5.984592644e-05
5.836909259e-05
5.894063361e-05
5.791625517e-05
5.833962132e-05
5.73179932e-05
5.759404303e-05
5.698838504e-05
5.711536141e-05
5.696387962e-05
5.693672574e-05
6.214840687e-05
6.325004506e-05
6.290242891e-05
6.445416511e-05
6.394415686e-05
6.50561924e-05
6.608758849e-05
6.734726048e-05
6.888347707e-05
7.076928159e-05
7.310217188e-05
7.596101932e-05
7.934762107e-05
8.320034976e-05
8.744710794e-05
9.194808081e-05
9.645631508e-05
0.0001007412575
0.0001041517171
6.137047603e-05
6.235128239e-05
6.062531611e-05
6.146965461e-05
5.958177644e-05
6.029058568e-05
5.883429549e-05
5.939865514e-05
5.794438039e-05
5.836668424e-05
5.731776764e-05
5.759321721e-05
5.698703899e-05
5.704673822e-05
6.338563981e-05
6.448546628e-05
6.439862045e-05
6.542327901e-05
6.655620382e-05
6.727331493e-05
6.561193732e-05
6.815057714e-05
6.945151836e-05
7.098189963e-05
7.279528654e-05
7.496494072e-05
7.758266293e-05
8.071494085e-05
8.434859774e-05
8.841481758e-05
9.282974497e-05
9.745078569e-05
0.0001020201453
0.0001063044911
6.237867638e-05
6.334786303e-05
6.106490764e-05
6.190383283e-05
6.003226008e-05
6.073292025e-05
5.886029248e-05
5.942352072e-05
5.794403842e-05
5.83661531e-05
5.731530837e-05
5.759090345e-05
6.437592674e-05
6.563686475e-05
6.546321674e-05
6.687080895e-05
6.818817201e-05
6.815393135e-05
7.028348773e-05
6.937020225e-05
6.684823165e-05
7.142090908e-05
7.29733365e-05
7.475565508e-05
7.682540308e-05
7.925475802e-05
8.213087858e-05
8.550696657e-05
8.935556252e-05
9.359942487e-05
9.814428631e-05
0.0001028426923
0.0001074290558
6.280657544e-05
6.376975216e-05
6.149907858e-05
6.232960004e-05
6.005572141e-05
6.075538113e-05
5.885949213e-05
5.94225894e-05
5.794223398e-05
5.836425407e-05
6.428833149e-05
6.660631334e-05
6.534234126e-05
6.810679042e-05
6.942221808e-05
6.95629642e-05
7.34652931e-05
7.107616693e-05
7.236793317e-05
7.098026981e-05
6.780376134e-05
7.484581147e-05
7.66308367e-05
7.864530198e-05
8.094863006e-05
8.36131876e-05
8.672080003e-05
9.031093214e-05
9.434134699e-05
9.872656665e-05
0.0001033627341
0.0001080957154
6.322414265e-05
6.41775041e-05
6.152046262e-05
6.234955072e-05
6.005453906e-05
6.075404235e-05
5.885726205e-05
5.91536882e-05
6.471165398e-05
6.645332905e-05
6.575715088e-05
6.905288319e-05
7.03525584e-05
7.07997242e-05
7.679830014e-05
7.553023897e-05
7.417122106e-05
7.239398838e-05
7.392493717e-05
7.219365216e-05
6.761916302e-05
7.840385661e-05
8.040197281e-05
8.262688789e-05
8.514044021e-05
8.801530203e-05
9.132801642e-05
9.510114614e-05
9.928052168e-05
0.0001037709953
0.0001084594041
6.324308924e-05
6.374422082e-05
6.151894922e-05
6.234780449e-05
6.00517742e-05
6.075093552e-05
6.472909445e-05
6.68581124e-05
6.577394379e-05
6.883782044e-05
7.01075769e-05
7.169973105e-05
8.026169962e-05
7.741917943e-05
7.883680519e-05
7.702563016e-05
7.54358407e-05
7.360534801e-05
7.511491276e-05
7.309316425e-05
6.801402924e-05
8.207360224e-05
8.426405111e-05
8.667693328e-05
8.937704115e-05
9.243800741e-05
9.592842252e-05
9.98535761e-05
0.0001041492142
0.0001087093988
6.324093556e-05
6.374201621e-05
6.151547132e-05
6.234409375e-05
6.472659152e-05
6.687398127e-05
6.5771339e-05
6.980408216e-05
7.048388215e-05
7.142574759e-05
8.38348933e-05
8.079972758e-05
8.226744831e-05
7.861901395e-05
8.028603042e-05
7.818904851e-05
7.661327982e-05
7.452983118e-05
7.600724348e-05
7.279095735e-05
6.802890857e-05
8.583324961e-05
8.819449431e-05
9.077270079e-05
9.363607387e-05
9.685914119e-05
0.0001004988299
0.0001045458048
0.0001089259385
6.323640264e-05
6.374518853e-05
6.473038229e-05
6.687128916e-05
6.577521708e-05
6.981705519e-05
7.049668056e-05
7.179201202e-05
8.749663539e-05
8.429279114e-05
8.580200665e-05
8.196540875e-05
8.366347902e-05
7.980000373e-05
8.146910113e-05
7.907720283e-05
7.752330566e-05
7.489033305e-05
7.635969814e-05
7.314702816e-05
6.802593271e-05
8.966117457e-05
9.217147453e-05
9.489241347e-05
9.789643809e-05
0.0001012571302
0.0001050176288
0.0001091577287
6.687545101e-05
6.981399201e-05
7.04931881e-05
7.180414832e-05
9.122641495e-05
8.787753177e-05
8.941932174e-05
8.539778355e-05
8.71426746e-05
8.313114813e-05
8.482516569e-05
8.066432929e-05
8.228320075e-05
7.941451622e-05
7.786841888e-05
7.521328371e-05
7.667436876e-05
7.315842959e-05
6.802973803e-05
9.353617497e-05
9.617374599e-05
9.901499288e-05
0.0001021381322
0.0001056116744
0.0001094652398
6.980785838e-05
7.049737906e-05
7.180067041e-05
9.500376473e-05
9.153362771e-05
9.309994493e-05
8.892168262e-05
9.070357919e-05
8.576898836e-05
8.750005509e-05
8.393111057e-05
8.560628339e-05
8.099328261e-05
8.260406321e-05
7.970953448e-05
7.817326696e-05
7.522307715e-05
7.668348553e-05
7.31549444e-05
9.743744886e-05
0.0001001803757
0.0001031214852
0.0001063414529
0.0001099025394
7.180483954e-05
9.880775906e-05
9.524163033e-05
9.682377276e-05
9.251643496e-05
9.432601655e-05
8.924891154e-05
9.101998876e-05
8.730536501e-05
8.82067252e-05
8.424392581e-05
8.59106658e-05
8.127918409e-05
8.288033132e-05
7.971770538e-05
7.818232552e-05
7.521991211e-05
7.668038597e-05
7.315914263e-05
0.0001013444707
0.0001041728901
0.0001071924344
0.0001104876501
9.898083226e-05
0.0001005704398
0.0001026196478
9.616367606e-05
9.799076361e-05
9.280159429e-05
9.460026195e-05
8.993990195e-05
9.169047553e-05
8.760162018e-05
8.931483899e-05
8.451141184e-05
8.616886771e-05
8.128639456e-05
8.28869961e-05
7.971393643e-05
7.747596101e-05
7.521291263e-05
7.667344471e-05
0.000105239531
0.0001081323207
0.0001112105892
9.984245116e-05
0.0001016779788
0.0001027325925
0.0001064211101
0.0001043222874
9.640683129e-05
9.822701395e-05
9.345628496e-05
9.523567132e-05
9.104885976e-05
9.196347673e-05
8.785112004e-05
8.955513476e-05
8.451764006e-05
8.617463027e-05
8.128356421e-05
8.288424578e-05
7.970718434e-05
7.748128701e-05
0.0001091038139
0.000112041831
0.0001000468255
0.0001018762123
0.0001035356254
0.0001101941161
0.000106478823
0.0001080604488
0.0001053707092
9.702605894e-05
9.882591985e-05
9.372170462e-05
9.549332026e-05
9.047384083e-05
9.220869106e-05
8.785664249e-05
8.956033707e-05
8.451504254e-05
8.617216372e-05
8.127653564e-05
8.2877159e-05
0.000112920643
0.0001006304374
0.000102440019
0.000103704544
0.0001139218803
0.0001102011011
0.0001117675129
0.0001072241139
0.0001090494188
0.0001055333269
9.727566794e-05
9.906689957e-05
9.477933781e-05
9.654737369e-05
9.12853211e-05
9.221424989e-05
8.785429236e-05
8.955840167e-05
8.450783935e-05
8.616488776e-05
0.0001008641921
0.0001026671889
0.0001042536824
0.0001138829975
0.0001154279016
0.0001108902143
0.0001126984789
0.0001081715745
0.0001099918591
0.0001069231221
9.832668729e-05
9.928143845e-05
9.478339052e-05
9.655178292e-05
9.128291276e-05
9.22105537e-05
8.784687088e-05
8.955011435e-05
0.0001010724591
0.0001028685292
0.0001044729361
0.0001145183414
0.0001163013876
0.000111800895
0.0001136043647
0.0001087311321
0.0001105337069
0.0001062770098
9.833155491e-05
9.928637883e-05
9.478074207e-05
9.654986206e-05
9.127301746e-05
9.221531946e-05
0.0001010772903
0.000102874561
0.0001046664474
0.0001153906633
0.0001171675394
0.0001123278489
0.000114113951
0.0001089360157
0.0001107316566
0.0001064665412
9.833038348e-05
9.928479267e-05
9.477193089e-05
9.654078895e-05
0.0001010752167
0.0001028725455
0.0001046723046
0.0001158846862
0.0001176464357
0.0001125198396
0.0001143001136
0.0001090997393
0.0001108905417
0.0001073093881
9.832122305e-05
0.000100109406
0.0001010807173
0.0001028783154
0.0001046710167
0.0001160659158
0.000117821779
0.0001126734132
0.0001144488342
0.0001091051381
0.0001100626323
0.0001073086096
0.0001046772159
0.0001162110711
0.0001179639657
0.0001126805219
0.0001144559938
0.0001091046724
0.0001100620284
0.0001073006933
0.0001162185654
0.0001179719184
0.0001126806819
0.0001144574053
0.0001090966252
0.0001100688023
0.000116220428
0.0001179738319
0.0001126726638
0.0001144492126
0.0001162124317
0.0001179659157
-3.996456144e-06
-3.996643954e-06
-3.388221103e-06
-4.00983572e-06
-3.387910056e-06
-2.7588394e-06
-4.060458195e-06
-3.400045898e-06
-2.758233904e-06
-2.11203951e-06
-4.193292625e-06
-3.453302725e-06
-2.770422725e-06
-2.111403546e-06
-1.448344506e-06
-4.462889137e-06
-3.588318577e-06
-2.824683179e-06
-2.124700131e-06
-1.449037654e-06
-7.729851177e-07
-4.925425401e-06
-3.862091035e-06
-2.963940915e-06
-2.180271622e-06
-1.462347882e-06
-7.73798206e-07
-8.105922689e-08
-6.620126442e-06
-4.331495802e-06
-3.242114872e-06
-2.321676675e-06
-1.518366162e-06
-7.882769069e-07
-8.086060177e-08
6.26739336e-07
-7.909977285e-06
-6.049828244e-06
-3.718524795e-06
-2.60591446e-06
-1.662788577e-06
-8.452172438e-07
-9.548058699e-08
6.259332395e-07
1.353336756e-06
-9.135595064e-06
-7.355632988e-06
-5.459104159e-06
-3.089858183e-06
-1.951594186e-06
-9.914630255e-07
-1.542747441e-07
6.104918384e-07
1.353257403e-06
2.096674052e-06
-9.778251297e-06
-8.595882719e-06
-6.779974228e-06
-4.854831332e-06
-2.443126732e-06
-1.283576239e-06
-3.012843308e-07
5.518677995e-07
1.338629659e-06
2.095635182e-06
2.862241445e-06
-9.253936696e-06
-1.108436027e-05
-8.032584446e-06
-6.191408829e-06
-4.229373189e-06
-1.78131404e-06
-5.97142332e-07
4.024013833e-07
1.279189746e-06
2.080799277e-06
2.861249868e-06
3.647614449e-06
-8.688005437e-06
-1.065116339e-05
-1.309569416e-05
-7.458568689e-06
-5.580394827e-06
-3.590553661e-06
-1.101647285e-06
1.035011437e-07
1.128789677e-06
2.021344926e-06
2.845683412e-06
3.647510312e-06
4.447021638e-06
-8.129724847e-06
-1.001583678e-05
-1.263293689e-05
-1.469725976e-05
-6.859543646e-06
-4.956719749e-06
-2.931225708e-06
-4.071851549e-07
8.25609618e-07
1.868704999e-06
2.785130164e-06
3.630885658e-06
4.446419098e-06
5.265581422e-06
-7.527844446e-06
-9.555026736e-06
-1.206293109e-05
-1.466816138e-05
-1.720477121e-05
-6.250311799e-06
-4.310824806e-06
-2.257791039e-06
3.091699909e-07
1.562827379e-06
2.631015604e-06
3.567897693e-06
4.429422006e-06
5.265353138e-06
6.104544809e-06
-6.934923476e-06
-8.879806956e-06
-1.157002043e-05
-1.368021458e-05
-1.622583841e-05
-2.134271563e-05
-5.615378996e-06
-3.651372253e-06
-1.558230224e-06
1.04293315e-06
2.323006356e-06
3.412442766e-06
4.367232123e-06
5.249151855e-06
6.101511644e-06
6.956277502e-06
-8.372177035e-06
-6.296436368e-06
-1.094684285e-05
-1.364917352e-05
-2.042247252e-05
-1.518044974e-05
-2.247449629e-05
-4.969593192e-06
-2.964445912e-06
-8.3910993e-07
1.800081463e-06
3.100915819e-06
4.209344752e-06
5.186472208e-06
6.085299447e-06
6.953478987e-06
7.826602086e-06
-7.673256732e-06
-1.041624364e-05
-5.666979177e-06
-1.258251086e-05
-1.943131065e-05
-1.40615939e-05
-1.254903509e-05
-2.59569606e-05
-2.046594273e-05
-4.293613529e-06
-2.257434062e-06
-9.317817273e-08
2.574454811e-06
3.896403996e-06
5.028051419e-06
6.023406058e-06
6.935973943e-06
7.824088243e-06
8.715021977e-06
-7.127428489e-06
-9.753317499e-06
-4.987292414e-06
-1.836154115e-05
-1.1385996e-05
-1.142194833e-05
-1.286044153e-05
-2.890725773e-05
-2.403844519e-05
-1.809271816e-05
-3.600758646e-06
-1.522870321e-06
6.64205686e-07
3.364450095e-06
4.708790129e-06
5.860444162e-06
6.872059203e-06
7.807871043e-06
8.714550859e-06
9.6174399e-06
-6.394787306e-06
-9.211871657e-06
-4.311866633e-06
-1.720551882e-05
-1.021215212e-05
-1.01740543e-05
-1.157935549e-05
-3.159948392e-05
-2.704227882e-05
-2.172045606e-05
-1.537074786e-05
-1.595727736e-05
-2.877090765e-06
-7.764544989e-07
1.440529445e-06
4.172113677e-06
5.538743153e-06
6.709330592e-06
7.742973139e-06
8.697577869e-06
9.616871466e-06
1.053614415e-05
-8.534364497e-06
-5.82695975e-06
-3.585696959e-06
-7.955003639e-06
-8.884909221e-06
-8.844869626e-06
-1.02279937e-05
-3.300577009e-05
-2.968315312e-05
-2.478279566e-05
-1.900237839e-05
-1.463178705e-05
-1.235544005e-05
-1.322718526e-05
-2.14388524e-06
-1.177886588e-08
2.230320888e-06
4.994259143e-06
6.384835615e-06
7.578795248e-06
8.630066986e-06
9.598817087e-06
1.053456344e-05
1.147515468e-05
-5.006704669e-06
-2.871272955e-06
-7.208484476e-06
-7.496090348e-06
-6.572282928e-06
-7.453866147e-06
-8.795617759e-06
-3.101437687e-05
-3.557682794e-05
-2.739165575e-05
-2.208629849e-05
-1.599389907e-05
-1.018558851e-05
-9.035626135e-06
-1.174896261e-05
-1.390193347e-06
7.631094832e-07
3.037971283e-06
5.835961474e-06
7.25291784e-06
8.462923688e-06
9.530471289e-06
1.051638264e-05
1.147381681e-05
1.243241059e-05
-4.415886451e-06
-2.110992909e-06
-5.801099633e-06
-5.134383173e-06
-6.017672149e-06
-5.972602139e-06
-7.277316854e-06
-3.341778211e-05
-2.866095019e-05
-3.776799713e-05
-2.470560139e-05
-1.909795901e-05
-1.276059083e-05
-8.53803158e-06
-5.663970114e-06
-5.400627742e-06
-6.80022913e-06
-6.271411621e-07
1.559352768e-06
3.859604931e-06
6.697628578e-06
8.132681614e-06
9.361408956e-06
1.044774126e-05
1.145458646e-05
1.243020506e-05
1.340728886e-05
-3.555245939e-06
-1.367629466e-06
-2.940607601e-06
-4.307876679e-06
-3.610168505e-06
-4.450367669e-06
-4.401876595e-06
-3.091809776e-05
-3.553976057e-05
-2.596821469e-05
-3.966613076e-05
-2.177511669e-05
-1.593367233e-05
-9.276245692e-06
-3.954796284e-06
-2.787409358e-06
-2.838027967e-06
-3.082991043e-06
-4.979833648e-06
-1.514079258e-06
-2.148329941e-06
1.568330674e-07
2.366343779e-06
4.702685601e-06
7.571116384e-06
9.027438864e-06
1.027739381e-05
1.138576135e-05
1.241066548e-05
1.340557992e-05
1.439911557e-05
-5.762788646e-07
-2.040886329e-06
-1.392479817e-06
-2.728733989e-06
-1.98451994e-06
-2.821695489e-05
-3.302162077e-05
-3.74353076e-05
-2.30689966e-05
-4.148934022e-05
-1.872361281e-05
-1.260160752e-05
-5.547746241e-06
-1.090618753e-06
-1.037372044e-06
-3.328479465e-07
-1.082079734e-06
1.704011083e-06
-1.129751467e-06
-2.578005365e-07
2.576477982e-06
8.895025871e-07
7.478960242e-07
8.039390877e-07
9.529459817e-07
3.199147613e-06
5.557543318e-06
8.462477126e-06
9.939980373e-06
1.12140724e-05
1.234072533e-05
1.338535367e-05
1.439682819e-05
1.54085792e-05
2.00955796e-07
-4.723252403e-07
2.611906211e-07
-3.038640352e-05
-2.540721653e-05
-3.498733349e-05
-3.920177551e-05
-2.008746924e-05
-4.316976265e-05
-1.554538903e-05
-9.075654816e-06
-1.594118316e-06
6.359621239e-07
1.458378392e-06
1.945630402e-06
1.212882808e-06
4.73942373e-06
4.67899963e-06
3.726628393e-06
2.681613068e-06
2.740114269e-06
6.84110455e-06
5.046667866e-06
2.948110705e-06
5.808427431e-06
2.470523668e-06
3.342329364e-06
1.77674292e-06
4.043610716e-06
6.435832347e-06
9.371326996e-06
1.087471082e-05
1.216860255e-05
1.331517888e-05
1.437671744e-05
1.540613812e-05
1.643503128e-05
1.023190521e-06
1.849268301e-06
-3.239685975e-05
-2.76355895e-05
-2.250847319e-05
-3.677776112e-05
-4.080283907e-05
-1.699088898e-05
-4.461811477e-05
-1.218362468e-05
-5.284167855e-06
2.577533451e-06
2.994115675e-06
3.747653864e-06
3.580592875e-06
2.719436225e-06
7.352177363e-06
6.721672435e-06
6.424579624e-06
6.783604476e-06
4.411116606e-06
5.322328434e-06
7.176769032e-06
9.171627426e-06
9.347530977e-06
1.008234722e-05
7.929428648e-06
8.8992565e-06
8.835861081e-06
4.85963119e-06
5.650591902e-06
2.610476486e-06
4.912898021e-06
7.330330845e-06
1.030246494e-05
1.182683172e-05
1.314098881e-05
1.430519751e-05
1.538611468e-05
1.643244104e-05
1.747902752e-05
-3.416333493e-05
-2.959671838e-05
-2.47739008e-05
-1.953348692e-05
-3.829415436e-05
-4.213542343e-05
-1.36922763e-05
-4.563564289e-05
-8.542839169e-06
-1.222698074e-06
4.877853371e-06
4.498767794e-06
5.406674063e-06
4.349877145e-06
3.472699518e-06
9.685775694e-06
8.465915926e-06
8.840292139e-06
9.408539881e-06
6.815062989e-06