/*--------------------------------*- C++ -*----------------------------------*\
  =========                 |
  \\      /  F ield         | OpenFOAM: The Open Source CFD Toolbox
   \\    /   O peration     | Website:  https://openfoam.org
    \\  /    A nd           | Version:  8
     \\/     M anipulation  |
\*---------------------------------------------------------------------------*/






FoamFile
{
    version     2.0;
    format      ascii;
    class       volSymmTensorField;
    location    "0";
    object      TauDDES;
}
// * * * * * * * * * * * * * * * * * * * * * * * * * * * * * * * * * * * * * //

dimensions      [0 2 -2 0 0 0 0];


internalField   nonuniform List<symmTensor>
16537
(
( 2.360114013e-05 -1.202309522e-05 1.428183936e-07 2.725971717e-05 -1.140624306e-07 2.362623673e-05 )
( 2.293583384e-05 -1.109388359e-05 8.184116496e-09 2.658348967e-05 -1.071566089e-07 2.352153388e-05 )
( 2.433513691e-05 -1.265978153e-05 7.36989989e-07 2.573659913e-05 -1.798052409e-07 2.192262764e-05 )
( 2.266426418e-05 -1.037130369e-05 -5.921258861e-08 2.597995262e-05 -1.160178726e-07 2.351773946e-05 )
( 2.370334005e-05 -1.204764612e-05 6.288120744e-07 2.547864278e-05 -1.516854411e-07 2.15085056e-05 )
( 2.458102426e-05 -1.269088898e-05 1.081452638e-06 2.38632565e-05 -2.710061153e-07 2.077817408e-05 )
( 2.253456296e-05 -9.761690308e-06 -7.581446937e-08 2.513996333e-05 -1.393639764e-07 2.354419667e-05 )
( 2.318598854e-05 -1.139011692e-05 5.165996413e-07 2.514132757e-05 -1.419336968e-07 2.11517945e-05 )
( 2.396872878e-05 -1.223674826e-05 9.91601496e-07 2.379201578e-05 -2.338439486e-07 2.037477134e-05 )
( 2.444005986e-05 -1.229479221e-05 1.282296807e-06 2.177714487e-05 -3.901909054e-07 1.975345731e-05 )
( 2.261988266e-05 -9.299291378e-06 -8.121310202e-08 2.426236097e-05 -1.633438984e-07 2.360399412e-05 )
( 2.284651782e-05 -1.081440314e-05 4.355133285e-07 2.471528751e-05 -1.535183003e-07 2.085707456e-05 )
( 2.3418208e-05 -1.170990708e-05 8.8912509e-07 2.369924186e-05 -2.043341993e-07 1.999029337e-05 )
( 2.389055226e-05 -1.197683923e-05 1.207786227e-06 2.18197838e-05 -3.497126499e-07 1.942628478e-05 )
( 2.392374881e-05 -1.157502993e-05 1.41898488e-06 1.968866491e-05 -4.835880532e-07 1.873401015e-05 )
( 2.288289397e-05 -8.952886674e-06 -7.07673351e-08 2.330472489e-05 -1.876339297e-07 2.37263921e-05 )
( 2.266456431e-05 -1.032069849e-05 3.786728087e-07 2.418531039e-05 -1.767384674e-07 2.061328996e-05 )
( 2.301797758e-05 -1.122505273e-05 7.979632528e-07 2.353548734e-05 -1.947853434e-07 1.96466226e-05 )
( 2.338039485e-05 -1.158912801e-05 1.124546998e-06 2.187212704e-05 -3.072913444e-07 1.909223647e-05 )
( 2.347514055e-05 -1.13600172e-05 1.364066975e-06 1.976104068e-05 -4.529500757e-07 1.850769513e-05 )
( 2.295606282e-05 -1.061856892e-05 1.444791792e-06 1.772281757e-05 -4.972170018e-07 1.753403558e-05 )
( 2.327574839e-05 -8.75157366e-06 -7.119845691e-08 2.245231008e-05 -2.126523242e-07 2.385837433e-05 )
( 2.258222776e-05 -9.914889233e-06 3.369758872e-07 2.35759544e-05 -2.02481516e-07 2.042488632e-05 )
( 2.272627717e-05 -1.078651803e-05 7.182020454e-07 2.327498805e-05 -2.015921581e-07 1.932487976e-05 )
( 2.298581603e-05 -1.121290825e-05 1.046375587e-06 2.187044447e-05 -2.77535122e-07 1.877220166e-05 )
( 2.305530506e-05 -1.109016921e-05 1.297814492e-06 1.987042197e-05 -4.133390235e-07 1.826500738e-05 )
( 2.258668974e-05 -1.047971273e-05 1.431662099e-06 1.778103615e-05 -4.868329029e-07 1.740644984e-05 )
( 2.162127748e-05 -9.511679309e-06 1.233313014e-06 1.592291119e-05 -4.04731793e-07 1.615328438e-05 )
( 2.376140401e-05 -8.659706509e-06 -7.346004338e-08 2.1717442e-05 -2.415072515e-07 2.393243631e-05 )
( 2.263112583e-05 -9.593631148e-06 3.03395467e-07 2.293132638e-05 -2.24638427e-07 2.027741721e-05 )
( 2.251458682e-05 -1.039840299e-05 6.487887845e-07 2.292351382e-05 -2.171931044e-07 1.903238808e-05 )
( 2.265298099e-05 -1.085480835e-05 9.706254787e-07 2.179765579e-05 -2.617250914e-07 1.845595398e-05 )
( 2.271649646e-05 -1.081629125e-05 1.234720344e-06 1.994965896e-05 -3.761531389e-07 1.80125553e-05 )
( 2.224898162e-05 -1.030327439e-05 1.40075872e-06 1.788727059e-05 -4.643436569e-07 1.727638301e-05 )
( 2.132366717e-05 -9.426416909e-06 1.26788359e-06 1.595898721e-05 -4.161974516e-07 1.608759703e-05 )
( 2.014727579e-05 -8.344265552e-06 8.153446629e-07 1.427690313e-05 -2.272286679e-07 1.474800774e-05 )
( 2.438251249e-05 -8.669988347e-06 -3.996060016e-08 2.101014434e-05 -2.827318326e-07 2.420342207e-05 )
( 2.276754822e-05 -9.337683878e-06 2.817330085e-07 2.228280573e-05 -2.42729385e-07 2.020329703e-05 )
( 2.2425118e-05 -1.006120419e-05 5.885696623e-07 2.250183752e-05 -2.343330578e-07 1.877676186e-05 )
( 2.238629895e-05 -1.051942399e-05 8.963364735e-07 2.16502558e-05 -2.572794529e-07 1.815090582e-05 )
( 2.240658796e-05 -1.054527911e-05 1.17304694e-06 1.998529297e-05 -3.447609345e-07 1.774433622e-05 )
( 2.198713446e-05 -1.011749919e-05 1.363609158e-06 1.798505036e-05 -4.355358953e-07 1.712771518e-05 )
( 2.106818829e-05 -9.320105164e-06 1.290436103e-06 1.604142017e-05 -4.177736059e-07 1.604152749e-05 )
( 1.992657781e-05 -8.297394743e-06 8.74825048e-07 1.43018633e-05 -2.52893642e-07 1.470408733e-05 )
( 1.857399548e-05 -7.172942787e-06 3.565413351e-07 1.273808448e-05 -3.216958788e-08 1.34820848e-05 )
( 2.501280505e-05 -8.7480621e-06 -1.046070697e-08 2.045877773e-05 -3.142027936e-07 2.431908797e-05 )
( 2.294471233e-05 -9.144874639e-06 2.675405995e-07 2.165993101e-05 -2.547694749e-07 2.015014616e-05 )
( 2.238204434e-05 -9.771625628e-06 5.387873898e-07 2.203769327e-05 -2.491231044e-07 1.855946539e-05 )
( 2.22183844e-05 -1.020957916e-05 8.240376133e-07 2.142986341e-05 -2.597032562e-07 1.786344365e-05 )
( 2.214483902e-05 -1.028148654e-05 1.11050656e-06 1.99743863e-05 -3.209528927e-07 1.746928501e-05 )
( 2.174125621e-05 -9.927502106e-06 1.322572416e-06 1.806144064e-05 -4.040809927e-07 1.694933781e-05 )
( 2.085526648e-05 -9.205384231e-06 1.297777885e-06 1.612440792e-05 -4.086405454e-07 1.598491872e-05 )
( 1.972475002e-05 -8.241355317e-06 9.365677442e-07 1.436728508e-05 -2.755599837e-07 1.469215113e-05 )
( 1.8404804e-05 -7.151103546e-06 4.16973478e-07 1.276162948e-05 -5.705397399e-08 1.343751228e-05 )
( 1.699063796e-05 -6.012586709e-06 -4.466340187e-08 1.123893435e-05 1.022100093e-07 1.242061808e-05 )
( 2.574472819e-05 -8.902283298e-06 3.051578901e-08 1.998020343e-05 -3.303480867e-07 2.445100836e-05 )
( 2.320698695e-05 -9.003654668e-06 2.628462141e-07 2.106920692e-05 -2.622267914e-07 2.011870129e-05 )
( 2.239328751e-05 -9.52249593e-06 5.009113693e-07 2.15566979e-05 -2.592056205e-07 1.837837408e-05 )
( 2.207456419e-05 -9.928940926e-06 7.562547353e-07 2.11491224e-05 -2.650188833e-07 1.759660518e-05 )
( 2.194476838e-05 -1.002510908e-05 1.04727178e-06 1.990568489e-05 -3.047755968e-07 1.719577267e-05 )
( 2.152816523e-05 -9.736419088e-06 1.27859505e-06 1.811369657e-05 -3.733100584e-07 1.674673877e-05 )
( 2.065889203e-05 -9.085251804e-06 1.293455057e-06 1.619725663e-05 -3.914933302e-07 1.590292231e-05 )
( 1.954119034e-05 -8.177674317e-06 9.837247035e-07 1.443263682e-05 -2.881069747e-07 1.468004029e-05 )
( 1.82400363e-05 -7.127828212e-06 4.884256555e-07 1.282077847e-05 -8.714300748e-08 1.34256743e-05 )
( 1.685487041e-05 -6.002566806e-06 -6.066009917e-10 1.126653297e-05 8.973722743e-08 1.237198921e-05 )
( 1.545027953e-05 -4.884774626e-06 -3.173138055e-07 9.747131116e-06 1.501315978e-07 1.155307018e-05 )
( 2.654423042e-05 -9.103387129e-06 6.867961133e-08 1.961295675e-05 -3.206929762e-07 2.453864727e-05 )
( 2.351791045e-05 -8.905701179e-06 2.686782636e-07 2.051520642e-05 -2.660995619e-07 2.009822492e-05 )
( 2.249026875e-05 -9.308492736e-06 4.753369467e-07 2.107443652e-05 -2.625984621e-07 1.82292606e-05 )
( 2.199133087e-05 -9.675859474e-06 6.958783842e-07 2.082820174e-05 -2.706868258e-07 1.735433398e-05 )
( 2.176498128e-05 -9.782124835e-06 9.841712654e-07 1.97759764e-05 -2.946237885e-07 1.692540172e-05 )
( 2.134672286e-05 -9.542496628e-06 1.232858153e-06 1.81293799e-05 -3.456090951e-07 1.653053914e-05 )
( 2.047551607e-05 -8.960570995e-06 1.280856623e-06 1.625626282e-05 -3.690794301e-07 1.579368472e-05 )
( 1.939513095e-05 -8.10734673e-06 1.0166533e-06 1.448891271e-05 -2.913168373e-07 1.465358218e-05 )
( 1.8098699e-05 -7.09777396e-06 5.528600582e-07 1.287903615e-05 -1.126572471e-07 1.342004816e-05 )
( 1.672542567e-05 -5.997098924e-06 5.952879789e-08 1.13283304e-05 6.852344825e-08 1.235052514e-05 )
( 1.533393151e-05 -4.879681001e-06 -3.02186038e-07 9.777119885e-06 1.531112162e-07 1.15182238e-05 )
( 1.399447137e-05 -3.803174423e-06 -4.023200688e-07 8.284739124e-06 1.324180374e-07 1.078409514e-05 )
( 2.741357639e-05 -9.35348362e-06 1.113880685e-07 1.934335887e-05 -2.826701859e-07 2.459535244e-05 )
( 2.390659029e-05 -8.849397091e-06 2.816144331e-07 2.000324275e-05 -2.628801781e-07 2.009025047e-05 )
( 2.260447582e-05 -9.122835763e-06 4.618391927e-07 2.059616236e-05 -2.605523832e-07 1.810137292e-05 )
( 2.198794209e-05 -9.446992408e-06 6.446587122e-07 2.04860844e-05 -2.739562603e-07 1.713979509e-05 )
( 2.161204065e-05 -9.555263205e-06 9.218534274e-07 1.959746078e-05 -2.889424877e-07 1.666119715e-05 )
( 2.117547774e-05 -9.351200788e-06 1.185610245e-06 1.810039248e-05 -3.220406484e-07 1.630400766e-05 )
( 2.03346699e-05 -8.829411854e-06 1.262525643e-06 1.629785038e-05 -3.439224656e-07 1.566451465e-05 )
( 1.923790478e-05 -8.032850019e-06 1.03789057e-06 1.45366148e-05 -2.867469675e-07 1.461077954e-05 )
( 1.800099562e-05 -7.060401003e-06 6.079582135e-07 1.292690831e-05 -1.325192613e-07 1.340825838e-05 )
( 1.660360613e-05 -5.987054919e-06 1.207226177e-07 1.138910284e-05 4.486543048e-08 1.23372738e-05 )
( 1.523375431e-05 -4.882024768e-06 -2.691754446e-07 9.843678527e-06 1.487400425e-07 1.150125627e-05 )
( 1.38973428e-05 -3.802286756e-06 -4.196660939e-07 8.308890756e-06 1.482982981e-07 1.077250363e-05 )
( 1.269260974e-05 -2.776408564e-06 -3.372130664e-07 6.881483387e-06 7.589648021e-08 1.004783644e-05 )
( 2.83628724e-05 -9.653827874e-06 1.535348559e-07 1.917529698e-05 -2.28051249e-07 2.461384611e-05 )
( 2.437649528e-05 -8.836764209e-06 2.9856173e-07 1.954020445e-05 -2.472807807e-07 2.009505988e-05 )
( 2.27861965e-05 -8.966205314e-06 4.592446317e-07 2.012807818e-05 -2.538023409e-07 1.798962512e-05 )
( 2.200059134e-05 -9.236701771e-06 6.055546464e-07 2.01285784e-05 -2.736676663e-07 1.694972161e-05 )
( 2.152812885e-05 -9.344255886e-06 8.616533478e-07 1.93854612e-05 -2.861923747e-07 1.640831033e-05 )
( 2.101477185e-05 -9.166298696e-06 1.136585979e-06 1.802878251e-05 -3.028600304e-07 1.606951992e-05 )
( 2.017278166e-05 -8.697613339e-06 1.240062375e-06 1.631937448e-05 -3.181481816e-07 1.551905916e-05 )
( 1.913207961e-05 -7.953146451e-06 1.049858611e-06 1.457615326e-05 -2.761816233e-07 1.455185156e-05 )
( 1.787386827e-05 -7.018754786e-06 6.531051895e-07 1.296634582e-05 -1.464178894e-07 1.338836501e-05 )
( 1.652685569e-05 -5.970199709e-06 1.79803564e-07 1.14390441e-05 2.089337947e-08 1.232274917e-05 )
( 1.512813833e-05 -4.881425866e-06 -2.28189009e-07 9.910978406e-06 1.376490246e-07 1.148727006e-05 )
( 1.383967992e-05 -3.811306897e-06 -4.255193176e-07 8.371084732e-06 1.603326183e-07 1.077681372e-05 )
( 1.2625208e-05 -2.77682966e-06 -3.700136233e-07 6.895719252e-06 9.853813054e-08 1.004764181e-05 )
( 1.168743438e-05 -1.832070893e-06 -2.612557068e-07 5.542745384e-06 1.096236435e-08 9.380846677e-06 )
( 2.929633411e-05 -9.977754416e-06 1.762938382e-07 1.906655416e-05 -1.6428001e-07 2.454271453e-05 )
( 2.489764847e-05 -8.864096344e-06 3.098776915e-07 1.914109453e-05 -2.198975579e-07 2.008453885e-05 )
( 2.303988003e-05 -8.84155088e-06 4.656693022e-07 1.967513163e-05 -2.406502517e-07 1.789304042e-05 )
( 2.204180419e-05 -9.04636363e-06 5.800150689e-07 1.976171188e-05 -2.698744765e-07 1.677390901e-05 )
( 2.148273416e-05 -9.144335309e-06 8.076161748e-07 1.914631321e-05 -2.848309748e-07 1.617338239e-05 )
( 2.088040128e-05 -8.98944927e-06 1.086444968e-06 1.791916475e-05 -2.885296908e-07 1.582966797e-05 )
( 2.004087219e-05 -8.564245945e-06 1.2138903e-06 1.63135519e-05 -2.933018379e-07 1.535726733e-05 )
( 1.900198549e-05 -7.872107744e-06 1.05543711e-06 1.460884596e-05 -2.616614836e-07 1.447855357e-05 )
( 1.778969636e-05 -6.973260497e-06 6.889274573e-07 1.299966971e-05 -1.546969628e-07 1.336022615e-05 )
( 1.642930329e-05 -5.94940002e-06 2.349899546e-07 1.147939292e-05 -1.694060003e-09 1.230538055e-05 )
( 1.506418539e-05 -4.874682418e-06 -1.825221858e-07 9.968764061e-06 1.215066732e-07 1.146990235e-05 )
( 1.376745604e-05 -3.818695859e-06 -4.190015659e-07 8.438184523e-06 1.649546277e-07 1.078002151e-05 )
( 1.258872544e-05 -2.790486178e-06 -4.052036786e-07 6.94446635e-06 1.216193084e-07 1.006684761e-05 )
( 1.161937598e-05 -1.825239679e-06 -2.890457722e-07 5.545312888e-06 3.169356688e-08 9.375979062e-06 )
( 1.097968197e-05 -8.6826509e-07 -1.79999688e-07 3.994147846e-06 -3.421845918e-08 8.81593769e-06 )
( 3.024010039e-05 -1.034013439e-05 1.63362202e-07 1.901676842e-05 -8.479536007e-08 2.442323967e-05 )
( 2.5476882e-05 -8.948809409e-06 3.241080151e-07 1.878393778e-05 -1.852363027e-07 2.012218101e-05 )
( 2.336536636e-05 -8.746755157e-06 4.796294206e-07 1.923843411e-05 -2.209863794e-07 1.780920138e-05 )
( 2.214168853e-05 -8.876651918e-06 5.673187502e-07 1.939133654e-05 -2.621393946e-07 1.660889939e-05 )
( 2.146012048e-05 -8.957420505e-06 7.624819887e-07 1.888668703e-05 -2.835876671e-07 1.595407412e-05 )
( 2.080523336e-05 -8.818497008e-06 1.037113179e-06 1.777810394e-05 -2.785089919e-07 1.559326483e-05 )
( 1.992274883e-05 -8.430603884e-06 1.18437481e-06 1.627604252e-05 -2.710028184e-07 1.517992951e-05 )
( 1.889956184e-05 -7.78683534e-06 1.055726102e-06 1.462779619e-05 -2.449659178e-07 1.438896106e-05 )
( 1.770789822e-05 -6.924905392e-06 7.169219884e-07 1.302770488e-05 -1.580992546e-07 1.332317242e-05 )
( 1.635959961e-05 -5.92520837e-06 2.84957963e-07 1.151205925e-05 -2.175795544e-08 1.228453766e-05 )
( 1.500358758e-05 -4.864084985e-06 -1.347167427e-07 1.001720466e-05 1.021092757e-07 1.14497625e-05 )
( 1.373426676e-05 -3.820221082e-06 -4.021052291e-07 8.499906471e-06 1.625920447e-07 1.077547313e-05 )
( 1.257123768e-05 -2.805122676e-06 -4.314139233e-07 7.001950507e-06 1.38835702e-07 1.008753679e-05 )
( 1.153535595e-05 -1.839083552e-06 -3.245544633e-07 5.581942787e-06 5.652232815e-08 9.396709174e-06 )
( 1.088896261e-05 -8.954312989e-07 -2.197325415e-07 4.11105475e-06 -2.099884533e-08 8.818444257e-06 )
( 1.072916712e-05 -3.104549364e-07 -3.678698235e-08 2.867803005e-06 -4.188403935e-08 8.586082913e-06 )
( 1.070140479e-05 -3.88948564e-07 -1.021402909e-07 3.122772796e-06 -4.414395605e-08 8.599232387e-06 )
( 3.101981929e-05 -1.068781421e-05 1.44324261e-07 1.898618575e-05 -3.967515205e-09 2.424251215e-05 )
( 2.608923023e-05 -9.075329217e-06 3.145857477e-07 1.849074579e-05 -1.350765331e-07 2.011740798e-05 )
( 2.370672883e-05 -8.693100426e-06 4.932397815e-07 1.882884135e-05 -1.956125857e-07 1.77336151e-05 )
( 2.229522397e-05 -8.724749932e-06 5.675225339e-07 1.901808719e-05 -2.493815145e-07 1.64516714e-05 )
( 2.145492363e-05 -8.783938029e-06 7.274942391e-07 1.861178316e-05 -2.81621567e-07 1.574577436e-05 )
( 2.075885641e-05 -8.654993508e-06 9.894207551e-07 1.76132271e-05 -2.719694692e-07 1.536337186e-05 )
( 1.984301343e-05 -8.297449313e-06 1.152019991e-06 1.621025513e-05 -2.522669433e-07 1.499147402e-05 )
( 1.880068157e-05 -7.696687135e-06 1.050758101e-06 1.462638193e-05 -2.27583314e-07 1.42814506e-05 )
( 1.763103501e-05 -6.872445738e-06 7.38307449e-07 1.304835041e-05 -1.578496978e-07 1.327643258e-05 )
( 1.629512735e-05 -5.897948085e-06 3.287888148e-07 1.153810445e-05 -3.869391918e-08 1.225955748e-05 )
( 1.492685988e-05 -4.85117107e-06 -8.678832586e-08 1.005710419e-05 8.126617246e-08 1.142767906e-05 )
( 1.366476499e-05 -3.817664037e-06 -3.779470603e-07 8.555199202e-06 1.542028514e-07 1.076360422e-05 )
( 1.25648512e-05 -2.815076869e-06 -4.475322442e-07 7.058265055e-06 1.495248796e-07 1.010144115e-05 )
( 1.150079515e-05 -1.856006634e-06 -3.583018326e-07 5.626055554e-06 7.847872041e-08 9.422025869e-06 )
( 1.077554316e-05 -9.059526178e-07 -2.384047377e-07 4.139384146e-06 -3.648399804e-09 8.833319953e-06 )
( 1.061242529e-05 -3.641146407e-07 -1.297028405e-07 3.149595614e-06 -3.647672031e-08 8.575310858e-06 )
( 1.058486123e-05 -3.631899403e-07 -1.32764356e-07 3.158779691e-06 -3.316215924e-08 8.580478607e-06 )
( 1.06272355e-05 2.94238216e-08 1.18535695e-07 2.024174819e-06 -3.220706546e-08 8.469713976e-06 )
( 1.059432725e-05 7.256389267e-09 4.165928402e-08 2.186045776e-06 -3.169091656e-08 8.445535968e-06 )
( 3.179116902e-05 -1.106352101e-05 1.171524815e-07 1.89770999e-05 6.248133388e-08 2.400758603e-05 )
( 2.665793545e-05 -9.235179277e-06 2.942348942e-07 1.82413296e-05 -7.291274784e-08 2.005857095e-05 )
( 2.406540261e-05 -8.675006029e-06 4.916931289e-07 1.845247971e-05 -1.621786794e-07 1.765854176e-05 )
( 2.247735392e-05 -8.596736734e-06 5.774591045e-07 1.864334445e-05 -2.315762657e-07 1.629072722e-05 )
( 2.148071326e-05 -8.620089829e-06 7.040770811e-07 1.832448288e-05 -2.773192023e-07 1.555033487e-05 )
( 2.07314115e-05 -8.499371688e-06 9.445804494e-07 1.743004759e-05 -2.677825819e-07 1.514278665e-05 )
( 1.979241097e-05 -8.166610314e-06 1.1166901e-06 1.61213793e-05 -2.373391936e-07 1.479612001e-05 )
( 1.872671965e-05 -7.603360245e-06 1.04117828e-06 1.46044822e-05 -2.107548482e-07 1.415853785e-05 )
( 1.755555422e-05 -6.815224879e-06 7.539504168e-07 1.30574299e-05 -1.549026365e-07 1.321824584e-05 )
( 1.624765537e-05 -5.866807896e-06 3.662950121e-07 1.155760947e-05 -5.249487245e-08 1.222991159e-05 )
( 1.488978069e-05 -4.835599157e-06 -4.076372306e-08 1.008907202e-05 6.047669387e-08 1.14039276e-05 )
( 1.358780173e-05 -3.812132036e-06 -3.488621587e-07 8.603909009e-06 1.412504815e-07 1.074613101e-05 )
( 1.248137141e-05 -2.821131602e-06 -4.542276884e-07 7.111963896e-06 1.536415368e-07 1.010696997e-05 )
( 1.153581252e-05 -1.869617677e-06 -3.884222224e-07 5.671036888e-06 9.637479792e-08 9.445097021e-06 )
( 1.069236623e-05 -9.209517202e-07 -2.591804673e-07 4.171238288e-06 1.374683212e-08 8.853391591e-06 )
( 1.053838423e-05 -3.698850151e-07 -1.38846957e-07 3.172980087e-06 -2.628233453e-08 8.588701348e-06 )
( 1.050594165e-05 -3.747715596e-07 -1.423072149e-07 3.182332421e-06 -2.168810198e-08 8.594670362e-06 )
( 1.052323205e-05 3.457393305e-08 2.569527879e-08 2.168934543e-06 -2.97282412e-08 8.422939572e-06 )
( 1.045632325e-05 7.017054315e-08 2.560126511e-08 2.116297992e-06 -2.573490754e-08 8.412729585e-06 )
( 1.052301013e-05 2.252124602e-07 2.137111608e-07 1.444778377e-06 -1.568294472e-08 8.354560123e-06 )
( 1.053806227e-05 2.108088921e-07 1.159120657e-07 1.646881174e-06 -1.986147424e-08 8.347874427e-06 )
( 3.257589924e-05 -1.140923177e-05 7.362765331e-08 1.900252755e-05 1.038072241e-07 2.383346691e-05 )
( 2.723380749e-05 -9.444463103e-06 2.808101272e-07 1.803567102e-05 -1.022413798e-08 1.996842911e-05 )
( 2.443071025e-05 -8.689288734e-06 4.763456047e-07 1.810866524e-05 -1.19760827e-07 1.756572783e-05 )
( 2.267628952e-05 -8.493034329e-06 5.853545417e-07 1.827818051e-05 -2.081625752e-07 1.613182212e-05 )
( 2.152849629e-05 -8.468138731e-06 6.936797377e-07 1.802430415e-05 -2.694263799e-07 1.536163109e-05 )
( 2.06927707e-05 -8.348659321e-06 9.042219631e-07 1.723017704e-05 -2.645380164e-07 1.493306081e-05 )
( 1.9747642e-05 -8.038204214e-06 1.078435275e-06 1.601249824e-05 -2.25917077e-07 1.459754458e-05 )
( 1.865024569e-05 -7.507940609e-06 1.026907853e-06 1.456314476e-05 -1.952689246e-07 1.402212911e-05 )
( 1.750030242e-05 -6.753350135e-06 7.645614915e-07 1.305201476e-05 -1.498945608e-07 1.314872679e-05 )
( 1.620172043e-05 -5.831431736e-06 3.979113217e-07 1.156896633e-05 -6.325533519e-08 1.219486694e-05 )
( 1.484838594e-05 -4.817426998e-06 2.0969253e-09 1.01134101e-05 4.083295835e-08 1.137802883e-05 )
( 1.353556127e-05 -3.803714208e-06 -3.17349361e-07 8.645778507e-06 1.25284032e-07 1.072448867e-05 )
( 1.242024973e-05 -2.823954901e-06 -4.527405508e-07 7.162016573e-06 1.517002346e-07 1.010440155e-05 )
( 1.148508818e-05 -1.880863238e-06 -4.131582898e-07 5.715783118e-06 1.09359604e-07 9.463252354e-06 )
( 1.06858497e-05 -9.337363736e-07 -2.813681306e-07 4.203676326e-06 3.011459171e-08 8.873704246e-06 )
( 1.046194848e-05 -3.832464586e-07 -1.498032134e-07 3.198078275e-06 -1.436741037e-08 8.604055438e-06 )
( 1.042518034e-05 -3.876764367e-07 -1.546126072e-07 3.207905138e-06 -1.039491782e-08 8.610390068e-06 )
( 1.043932571e-05 6.42919602e-08 2.40990925e-08 2.125659648e-06 -2.477504779e-08 8.423215149e-06 )
( 1.039392464e-05 5.743182996e-08 2.271498367e-08 2.137398724e-06 -2.210715522e-08 8.433731637e-06 )
( 1.04531191e-05 2.98591516e-07 1.276350332e-07 1.421964498e-06 -1.233306968e-08 8.276262633e-06 )
( 1.040463303e-05 2.894271347e-07 1.290556639e-07 1.43998875e-06 -1.332866972e-08 8.296821761e-06 )
( 1.02893282e-05 3.603316827e-07 2.678384021e-07 7.93482684e-07 3.522509839e-09 8.130773494e-06 )
( 1.029872419e-05 4.028371166e-07 2.019621519e-07 7.808111491e-07 1.174035091e-09 8.099071238e-06 )
( 3.310647298e-05 -1.165613139e-05 4.399386455e-08 1.897567199e-05 1.43400726e-07 2.359233258e-05 )
( 2.775754729e-05 -9.652624612e-06 2.721377825e-07 1.786904068e-05 4.262385644e-08 1.981470268e-05 )
( 2.477461021e-05 -8.741679267e-06 4.609287316e-07 1.779466584e-05 -7.359152221e-08 1.744765177e-05 )
( 2.288811265e-05 -8.412307579e-06 5.82495602e-07 1.7923614e-05 -1.784845693e-07 1.59711708e-05 )
( 2.160235272e-05 -8.329352568e-06 6.920023452e-07 1.77174752e-05 -2.565610657e-07 1.517965848e-05 )
( 2.065741319e-05 -8.203302059e-06 8.71032114e-07 1.701535075e-05 -2.611348862e-07 1.47343726e-05 )
( 1.969799814e-05 -7.911131434e-06 1.037820539e-06 1.588628584e-05 -2.173137403e-07 1.439930475e-05 )
( 1.859053191e-05 -7.410479157e-06 1.007866331e-06 1.450365107e-05 -1.816800079e-07 1.387412522e-05 )
( 1.745960253e-05 -6.687179393e-06 7.703024494e-07 1.303140562e-05 -1.433323575e-07 1.306812919e-05 )
( 1.616536065e-05 -5.791270269e-06 4.244677143e-07 1.156957478e-05 -7.088284804e-08 1.21539033e-05 )
( 1.478729519e-05 -4.79613027e-06 4.125385544e-08 1.012965822e-05 2.325791826e-08 1.134925969e-05 )
( 1.349513514e-05 -3.792482858e-06 -2.851491843e-07 8.680399333e-06 1.07780231e-07 1.069938116e-05 )
( 1.234258707e-05 -2.823525392e-06 -4.447551305e-07 7.207719136e-06 1.446787934e-07 1.009473999e-05 )
( 1.148047158e-05 -1.889578584e-06 -4.321421159e-07 5.759305623e-06 1.169507939e-07 9.475449588e-06 )
( 1.064062599e-05 -9.461486457e-07 -3.037626755e-07 4.235533652e-06 4.474674498e-08 8.894046914e-06 )
( 1.04108567e-05 -3.949873815e-07 -1.634379743e-07 3.223385875e-06 -3.422551575e-09 8.619954315e-06 )
( 1.040519965e-05 -3.989431718e-07 -1.691242915e-07 3.232382369e-06 8.978859878e-10 8.626734598e-06 )
( 1.037959282e-05 5.119179391e-08 2.107769248e-08 2.145780627e-06 -1.999670118e-08 8.442359103e-06 )
( 1.03368393e-05 4.436371981e-08 1.781748438e-08 2.156577239e-06 -1.783837433e-08 8.452128895e-06 )
( 1.038415303e-05 2.826674859e-07 1.307079742e-07 1.451701678e-06 -1.286737383e-08 8.313054423e-06 )
( 1.035003152e-05 2.764205647e-07 1.326520902e-07 1.461940315e-06 -1.375175973e-08 8.32889782e-06 )
( 1.028110182e-05 4.119189043e-07 1.94951582e-07 7.426681918e-07 1.243790404e-09 8.09688936e-06 )
( 1.02737913e-05 4.033097696e-07 2.002240365e-07 7.617459232e-07 -1.901128699e-10 8.124494343e-06 )
( 9.799668987e-06 3.421801011e-07 3.073182597e-07 3.328363221e-07 1.20234338e-08 7.684524462e-06 )
( 1.00073903e-05 3.834253164e-07 2.161177122e-07 4.186583169e-07 6.221223536e-09 7.794290468e-06 )
( 3.368661419e-05 -1.192124e-05 -4.693134059e-08 1.89962484e-05 1.871138124e-07 2.346494512e-05 )
( 2.82050205e-05 -9.825685993e-06 2.596107151e-07 1.771950883e-05 8.450322042e-08 1.961239104e-05 )
( 2.508687794e-05 -8.813059139e-06 4.545753427e-07 1.751749369e-05 -3.125161996e-08 1.730321492e-05 )
( 2.309674892e-05 -8.357850675e-06 5.714374538e-07 1.758210965e-05 -1.442400759e-07 1.581246761e-05 )
( 2.169356958e-05 -8.204241567e-06 6.907739589e-07 1.740813605e-05 -2.376571189e-07 1.50032065e-05 )
( 2.064450382e-05 -8.06452681e-06 8.467451948e-07 1.678788976e-05 -2.562287023e-07 1.454637186e-05 )
( 1.964024887e-05 -7.785959497e-06 9.965604022e-07 1.574618727e-05 -2.111954842e-07 1.420426815e-05 )
( 1.85450117e-05 -7.31093678e-06 9.837524431e-07 1.442864141e-05 -1.70277545e-07 1.371669168e-05 )
( 1.742572931e-05 -6.617045983e-06 7.711128092e-07 1.299598989e-05 -1.359057791e-07 1.297665585e-05 )
( 1.614280336e-05 -5.746421266e-06 4.459808451e-07 1.155825885e-05 -7.536355184e-08 1.210681785e-05 )
( 1.473066186e-05 -4.771051863e-06 7.616338848e-08 1.013651035e-05 8.594680523e-09 1.131693352e-05 )
( 1.344040174e-05 -3.778584414e-06 -2.536613408e-07 8.707093912e-06 9.017557545e-08 1.067095673e-05 )
( 1.229329791e-05 -2.820089094e-06 -4.32362981e-07 7.248318525e-06 1.33864944e-07 1.007888568e-05 )
( 1.13720198e-05 -1.895946752e-06 -4.447603317e-07 5.800737654e-06 1.191732508e-07 9.481324923e-06 )
( 1.066487584e-05 -9.583867495e-07 -3.259739287e-07 4.266734777e-06 5.66998537e-08 8.913351849e-06 )
( 1.036841968e-05 -4.069859756e-07 -1.78944731e-07 3.24695111e-06 7.746570496e-09 8.637571227e-06 )
( 1.034111847e-05 -4.122959183e-07 -1.853200615e-07 3.255342563e-06 1.207833744e-08 8.645834896e-06 )
( 1.030068779e-05 3.832398221e-08 1.468928446e-08 2.163669478e-06 -1.643646286e-08 8.461001926e-06 )
( 1.028985753e-05 3.199167509e-08 1.034570829e-08 2.173142093e-06 -1.391645021e-08 8.470782632e-06 )
( 1.033824083e-05 2.691137126e-07 1.338631392e-07 1.468682967e-06 -1.304432384e-08 8.34050843e-06 )
( 1.030559361e-05 2.628615903e-07 1.350987588e-07 1.475680165e-06 -1.309215669e-08 8.353725207e-06 )
( 1.025785787e-05 3.966280246e-07 2.054690782e-07 7.730791367e-07 -1.333880784e-09 8.147976587e-06 )
( 1.024000903e-05 3.910268163e-07 2.103283379e-07 7.785027378e-07 -2.7258098e-09 8.168784916e-06 )
( 1.000479369e-05 3.835527309e-07 2.034572191e-07 4.233607456e-07 4.17227275e-09 7.814059245e-06 )
( 1.000126395e-05 3.807476219e-07 2.092335905e-07 4.368840507e-07 2.997940118e-09 7.849470421e-06 )
( 7.516788628e-06 1.825128493e-07 1.640113538e-07 6.374863659e-08 4.867402037e-09 5.130704267e-06 )
( 7.139158697e-06 1.722165308e-07 1.283900133e-07 4.419023725e-08 2.921412889e-09 4.792325853e-06 )
( 3.896766066e-05 -1.40187276e-05 -2.456452535e-07 2.098367077e-05 2.115384063e-07 2.760621464e-05 )
( 3.415502215e-05 -1.212545885e-05 -1.576538864e-07 1.899295603e-05 2.452204058e-07 2.33215178e-05 )
( 2.857578693e-05 -9.969806342e-06 2.343433891e-07 1.758245344e-05 1.220536205e-07 1.938942114e-05 )
( 2.534790656e-05 -8.880258065e-06 4.518542482e-07 1.726611481e-05 4.339002935e-09 1.712235826e-05 )
( 2.328827213e-05 -8.323464499e-06 5.613130156e-07 1.726136361e-05 -1.094733975e-07 1.565721323e-05 )
( 2.178886098e-05 -8.094055374e-06 6.84633676e-07 1.709899334e-05 -2.125550793e-07 1.483197229e-05 )
( 2.064567161e-05 -7.932541848e-06 8.294116469e-07 1.655139567e-05 -2.479424666e-07 1.43694333e-05 )
( 1.959762449e-05 -7.663787983e-06 9.573933539e-07 1.559351949e-05 -2.072331569e-07 1.401471218e-05 )
( 1.850290573e-05 -7.210283911e-06 9.54767529e-07 1.434125261e-05 -1.613158531e-07 1.355275162e-05 )
( 1.738916035e-05 -6.543350992e-06 7.668937201e-07 1.294772392e-05 -1.284788311e-07 1.287484247e-05 )
( 1.611733205e-05 -5.697250344e-06 4.626674581e-07 1.153469657e-05 -7.711422967e-08 1.205337139e-05 )
( 1.469493327e-05 -4.742127203e-06 1.064774509e-07 1.013335623e-05 -2.716788572e-09 1.128082476e-05 )
( 1.340379276e-05 -3.761851303e-06 -2.240047934e-07 8.72484452e-06 7.375016509e-08 1.063936361e-05 )
( 1.227920802e-05 -2.813544597e-06 -4.172879073e-07 7.2830926e-06 1.205941373e-07 1.005741888e-05 )
( 1.131997851e-05 -1.899553922e-06 -4.517900152e-07 5.8392352e-06 1.165476817e-07 9.481107554e-06 )
( 1.060907198e-05 -9.691168543e-07 -3.454832722e-07 4.296859061e-06 6.537183594e-08 8.928915122e-06 )
( 1.03393395e-05 -4.211246676e-07 -1.961072655e-07 3.269339686e-06 1.833089414e-08 8.65763468e-06 )
( 1.035591231e-05 -4.263568201e-07 -2.033539914e-07 3.277268434e-06 2.247745456e-08 8.666002032e-06 )
( 1.025756319e-05 2.569433377e-08 5.926120039e-09 2.178948534e-06 -1.183850795e-08 8.479362805e-06 )
( 1.023750247e-05 1.900264124e-08 8.574367882e-10 2.187274276e-06 -9.039108129e-09 8.489375432e-06 )
( 1.027586677e-05 2.553162801e-07 1.354048322e-07 1.482454081e-06 -1.3631972e-08 8.367042028e-06 )
( 1.02593649e-05 2.503140308e-07 1.349372809e-07 1.487978011e-06 -1.313691556e-08 8.378293387e-06 )
( 1.022379001e-05 3.852122745e-07 2.14820929e-07 7.80443429e-07 -4.002139065e-09 8.187765161e-06 )
( 1.021025855e-05 3.792863481e-07 2.197337778e-07 7.839590239e-07 -5.021980609e-09 8.207261089e-06 )
( 9.992270861e-06 3.768529098e-07 2.150678569e-07 4.432390028e-07 1.928536442e-09 7.877163625e-06 )
( 9.994512766e-06 3.735027008e-07 2.19797812e-07 4.468927841e-07 6.427263721e-10 7.900429409e-06 )
( 7.592526799e-06 1.853766491e-07 1.271475867e-07 4.816495647e-08 2.43840681e-09 5.036238235e-06 )
( 7.79761649e-06 1.887208327e-07 1.28688356e-07 5.029789918e-08 2.094311613e-09 5.161127319e-06 )
( 4.730819001e-06 7.374790556e-08 6.952612353e-08 8.997766088e-09 1.33518685e-09 2.892305474e-06 )
( 5.161872195e-06 8.834877718e-08 7.846423955e-08 1.144889072e-08 1.472227673e-09 3.166354418e-06 )
( 3.94576964e-05 -1.42415729e-05 -4.23308137e-07 2.105912426e-05 2.953479736e-07 2.74736085e-05 )
( 4.692345829e-05 -1.704886017e-05 -5.421103424e-07 2.47097887e-05 3.441436434e-07 3.279938392e-05 )
( 2.892542034e-05 -1.010343476e-05 1.949004513e-07 1.745463487e-05 1.657695634e-07 1.922296906e-05 )
( 3.457860294e-05 -1.230084581e-05 -2.770553351e-07 1.89796865e-05 3.120037491e-07 2.315829988e-05 )
( 2.559569111e-05 -8.943771718e-06 4.427707836e-07 1.703805901e-05 3.604318266e-08 1.692863589e-05 )
( 2.344122549e-05 -8.298788089e-06 5.563861691e-07 1.696049731e-05 -7.830398374e-08 1.549842636e-05 )
( 2.189899897e-05 -7.997870853e-06 6.746080885e-07 1.679544403e-05 -1.828819904e-07 1.466951744e-05 )