/*--------------------------------*- C++ -*----------------------------------*\
  =========                 |
  \\      /  F ield         | OpenFOAM: The Open Source CFD Toolbox
   \\    /   O peration     | Website:  https://openfoam.org
    \\  /    A nd           | Version:  8
     \\/     M anipulation  |
\*---------------------------------------------------------------------------*/






FoamFile
{
    version     2.0;
    format      ascii;
    class       volVectorField;
    location    "0";
    object      UDDES;
}
// * * * * * * * * * * * * * * * * * * * * * * * * * * * * * * * * * * * * * //

dimensions      [0 1 -1 0 0 0 0];


internalField   nonuniform List<vector> 
16537
(
( 0.02778055333 0.002478665207 7.827263471e-05 )
( 0.02791909501 0.00215768395 7.755997649e-05 )
( 0.02791022509 0.00227702572 6.998819299e-05 )
( 0.02803001553 0.001837832853 7.76953384e-05 )
( 0.02805277705 0.002022795146 7.448853285e-05 )
( 0.0280995667 0.002106366679 7.02262696e-05 )
( 0.02809598297 0.001563771977 7.53101267e-05 )
( 0.02818420157 0.001745295594 7.815686695e-05 )
( 0.02824136056 0.001886705519 7.623095007e-05 )
( 0.02834289707 0.00193783245 6.789476174e-05 )
( 0.02813159861 0.00134160812 7.362118049e-05 )
( 0.02827554941 0.001498245867 7.981790986e-05 )
( 0.02837805077 0.001640589559 8.220082964e-05 )
( 0.02847999334 0.00174749468 7.413158164e-05 )
( 0.02862704545 0.001778355101 6.741977268e-05 )
( 0.0281567201 0.001141697168 7.207203453e-05 )
( 0.02833954059 0.001283975085 8.00043199e-05 )
( 0.02848096378 0.001417215215 8.672346303e-05 )
( 0.02861630172 0.001531053917 8.132062067e-05 )
( 0.02875690907 0.001611881424 7.134550833e-05 )
( 0.02894648165 0.001630266896 7.373785775e-05 )
( 0.02817842737 0.0009772296762 7.147525321e-05 )
( 0.0283902511 0.001098736888 7.956887566e-05 )
( 0.02855904773 0.001219343627 8.975379751e-05 )
( 0.02872353606 0.001330301049 8.776967297e-05 )
( 0.02888847701 0.001420130488 7.677450049e-05 )
( 0.02906931564 0.001483317465 7.322489546e-05 )
( 0.02929371968 0.00149085687 8.394046745e-05 )
( 0.02820528112 0.0008313290891 7.472326979e-05 )
( 0.02843621187 0.0009358318639 8.005224663e-05 )
( 0.02862227336 0.001044397592 9.155208681e-05 )
( 0.02880827338 0.001148309791 9.327691077e-05 )
( 0.0289949961 0.001238872297 8.236437134e-05 )
( 0.02919528447 0.001312049571 7.40237374e-05 )
( 0.02941186354 0.001361405943 7.858878234e-05 )
( 0.02964865789 0.001358231297 9.263934044e-05 )
( 0.02821667865 0.0006924278568 6.223324453e-05 )
( 0.02847888134 0.0007895799354 7.852021372e-05 )
( 0.02867676131 0.0008874719497 9.25862405e-05 )
( 0.0288774427 0.0009839636041 9.775515355e-05 )
( 0.02908108942 0.001071306644 8.774508024e-05 )
( 0.02929911204 0.001147876377 7.599973469e-05 )
( 0.02953399718 0.001208871952 7.368878141e-05 )
( 0.02976414561 0.001244870131 8.440728561e-05 )
( 0.02998299897 0.001232338022 9.28307054e-05 )
( 0.02823510021 0.0005588685162 5.757535837e-05 )
( 0.02852265164 0.0006527293008 7.752110832e-05 )
( 0.02872760408 0.0007439200999 9.316568321e-05 )
( 0.02893674374 0.0008337974432 0.0001012853027 )
( 0.02915086597 0.0009176403983 9.267848509e-05 )
( 0.02938422747 0.0009937619325 7.866547821e-05 )
( 0.02963640355 0.001060618437 7.045356324e-05 )
( 0.0298846066 0.001110041398 7.531396113e-05 )
( 0.03009689599 0.001133098034 8.504287689e-05 )
( 0.03027009778 0.001109925681 7.739078137e-05 )
( 0.02824415639 0.0004163211852 5.083323413e-05 )
( 0.02856486291 0.0005196016282 7.566715067e-05 )
( 0.0287761502 0.0006092876429 9.34467098e-05 )
( 0.02899084985 0.0006946389331 0.000103990089 )
( 0.02921093069 0.0007754439139 9.699451039e-05 )
( 0.02945363522 0.0008503828431 8.163677558e-05 )
( 0.02972145565 0.0009193646256 6.853561354e-05 )
( 0.02998728305 0.0009771026671 6.760842371e-05 )
( 0.03021654859 0.001013907604 7.534329779e-05 )
( 0.03038344346 0.001023187069 7.279036072e-05 )
( 0.03049431369 0.0009902107995 4.25842627e-05 )
( 0.02824332006 0.0002661369799 4.748376159e-05 )
( 0.0286032781 0.0003851913498 7.277604163e-05 )
( 0.02882132493 0.0004791680258 9.347317246e-05 )
( 0.0290402025 0.0005632493994 0.0001060372742 )
( 0.02926556207 0.0006424377789 0.0001006096645 )
( 0.02951321751 0.000716818613 8.45494942e-05 )
( 0.02979233488 0.0007861420163 6.760808901e-05 )
( 0.03007311188 0.0008485199651 6.129116082e-05 )
( 0.03031967022 0.0008950963384 6.613066216e-05 )
( 0.03050336614 0.0009183320217 6.59949219e-05 )
( 0.03060773946 0.0009146988741 4.191922926e-05 )
( 0.0306462422 0.0008736124728 -8.903439266e-06 )
( 0.02822596952 0.000107584121 4.645770969e-05 )
( 0.02863411047 0.000246341544 6.921605382e-05 )
( 0.02886348218 0.0003493191325 9.305244748e-05 )
( 0.02908311598 0.000436619739 0.0001076490807 )
( 0.02931456827 0.0005160333239 0.0001036180329 )
( 0.02956647798 0.000590904383 8.714129945e-05 )
( 0.02985203639 0.0006608954282 6.735794159e-05 )
( 0.03014529124 0.0007255751989 5.626765051e-05 )
( 0.03040673397 0.0007787741488 5.770639837e-05 )
( 0.030608017 0.0008128540358 5.86258393e-05 )
( 0.03072873689 0.0008229279192 3.955179272e-05 )
( 0.03075916506 0.0008076777449 -6.413052233e-06 )
( 0.03070558421 0.0007615590584 -6.734015187e-05 )
( 0.02818595991 -6.029661381e-05 4.664652806e-05 )
( 0.02865313925 0.0001010836131 6.570166443e-05 )
( 0.02889924869 0.0002172134409 9.203663649e-05 )
( 0.02912267298 0.0003113230632 0.0001088564313 )
( 0.02935609594 0.0003939036978 0.0001061254443 )
( 0.02961371094 0.0004705200263 8.937617531e-05 )
( 0.02990327403 0.0005423012772 6.752654735e-05 )
( 0.03020511568 0.000608623086 5.240539031e-05 )
( 0.0304803066 0.0006662724772 5.027337102e-05 )
( 0.03069723956 0.0007086138357 5.110097118e-05 )
( 0.03083579801 0.0007299865247 3.597416071e-05 )
( 0.03088006191 0.0007273490774 -4.660996183e-06 )
( 0.0308182463 0.0007039087941 -6.341135304e-05 )
( 0.0306292735 0.0006526271463 -0.0001165801368 )
( 0.02812756971 -0.0002358142665 4.917021943e-05 )
( 0.0286601577 -5.179163418e-05 6.52266026e-05 )
( 0.02892396785 8.105469169e-05 9.04664048e-05 )
( 0.02915762179 0.0001853925642 0.0001096143242 )
( 0.02939258516 0.000274007034 0.0001080771181 )
( 0.02965470031 0.0003539304598 9.120802133e-05 )
( 0.02994734794 0.0004284900788 6.789614417e-05 )
( 0.03025523201 0.0004970685695 4.954876567e-05 )
( 0.03054133803 0.0005581346923 4.392162737e-05 )
( 0.03077296913 0.0006068573566 4.378494486e-05 )
( 0.0309281908 0.0006374967634 3.15050529e-05 )
( 0.03098882735 0.0006457814598 -4.205255209e-06 )
( 0.03093843721 0.0006336466176 -5.88807743e-05 )
( 0.03074226528 0.0006023311871 -0.0001133725527 )
( 0.03023541346 0.0005226245848 -0.0001452520082 )
( 0.02804590575 -0.000418860378 5.037529627e-05 )
( 0.02864369377 -0.0002119603741 6.220150681e-05 )
( 0.02893705852 -6.111364928e-05 8.865298878e-05 )
( 0.02918290161 5.701226473e-05 0.0001098730572 )
( 0.02942446247 0.0001542732352 0.0001094618492 )
( 0.02968912572 0.00023977409 9.255068289e-05 )
( 0.02998557314 0.000318078819 6.826606113e-05 )
( 0.03029689938 0.0003898863797 4.749672371e-05 )
( 0.03059187904 0.0004542213283 3.866438055e-05 )
( 0.03083616309 0.0005081959534 3.695080522e-05 )
( 0.03100701049 0.0005465392023 2.647803558e-05 )
( 0.03108394146 0.0005643453915 -4.919132607e-06 )
( 0.03104749136 0.0005623493926 -5.520695413e-05 )
( 0.03086443432 0.0005417576758 -0.0001084762334 )
( 0.03041785024 0.0004875487066 -0.000146046892 )
( 0.0296526961 0.0004388589878 -0.0001429871336 )
( 0.02989244461 0.0004504031385 -0.0001514460891 )
( 0.02795327827 -0.0006065870402 5.545862223e-05 )
( 0.02860900015 -0.0003784020082 6.283778202e-05 )
( 0.02893619053 -0.0002088258043 8.713594434e-05 )
( 0.02919830754 -7.49022729e-05 0.0001097649219 )
( 0.02944926918 3.343495337e-05 0.0001103082614 )
( 0.02971703932 0.0001264509629 9.338559175e-05 )
( 0.03001685068 0.0002099953272 6.852189108e-05 )
( 0.03033193201 0.0002858243533 4.6023295e-05 )
( 0.03063319623 0.0003540955659 3.441127774e-05 )
( 0.03088833578 0.000412760477 3.077315705e-05 )
( 0.03107390553 0.0004577211221 2.12119121e-05 )
( 0.03116671368 0.0004838980385 -6.602248959e-06 )
( 0.03114406578 0.0004910146235 -5.252331903e-05 )
( 0.03097558022 0.000480363291 -0.0001037628899 )
( 0.03054662794 0.0004376709403 -0.0001434547448 )
( 0.02999394387 0.00041919254 -0.0001542676619 )
( 0.03005362302 0.0004031926219 -0.0001542950049 )
( 0.02900274284 0.0003711643512 -0.000125908351 )
( 0.02919494547 0.000365838554 -0.0001348337537 )
( 0.02783206478 -0.000802960596 5.829404836e-05 )
( 0.02855758555 -0.0005500518018 6.540182949e-05 )
( 0.02892087959 -0.0003610658459 8.702874038e-05 )
( 0.02920335717 -0.0002109342458 0.0001094958934 )
( 0.02946562506 -8.90193478e-05 0.0001106894706 )
( 0.02973810025 1.291411445e-05 9.373200737e-05 )
( 0.03004092351 0.000103048078 6.859946734e-05 )
( 0.03035985678 0.0001840321784 4.497953705e-05 )
( 0.03066639602 0.0002569285862 3.100488539e-05 )
( 0.03093015775 0.0003204275854 2.532064354e-05 )
( 0.03112873062 0.0003713204933 1.596253605e-05 )
( 0.03123748861 0.0004049869895 -8.997465557e-06 )
( 0.03122956492 0.0004203198769 -5.081626296e-05 )
( 0.03107369877 0.0004186924198 -9.943481564e-05 )
( 0.03066422231 0.0003867082705 -0.0001403814094 )
( 0.0301312916 0.000378259545 -0.0001539019286 )
( 0.03018745035 0.0003603748919 -0.0001539432851 )
( 0.02928935736 0.0003349304898 -0.0001386482036 )
( 0.02933538705 0.0003092525876 -0.0001396578155 )
( 0.02833458036 0.0003098953166 -0.000106302301 )
( 0.02865608037 0.0003190944262 -0.0001195543155 )
( 0.027684642 -0.0009926494677 6.176879106e-05 )
( 0.0284795817 -0.0007251007482 6.78635115e-05 )
( 0.02889146283 -0.0005169748911 8.86384878e-05 )
( 0.02919631451 -0.0003498148872 0.0001096433916 )
( 0.02947251126 -0.0002138012205 0.0001106341952 )
( 0.02975212038 -0.0001012199427 9.36131255e-05 )
( 0.03005802631 -3.515264325e-06 6.84628103e-05 )
( 0.03038070537 8.368999261e-05 4.424814688e-05 )
( 0.03069163486 0.0001619863033 2.831931488e-05 )
( 0.03096302226 0.000230741236 2.057191159e-05 )
( 0.03117300943 0.0002873554185 1.090361184e-05 )
( 0.03129655123 0.0003279248485 -1.186278678e-05 )
( 0.03130283207 0.0003508025547 -4.998137229e-05 )
( 0.0311611183 0.0003573826689 -9.56402946e-05 )
( 0.0307683479 0.0003352672502 -0.0001368657395 )
( 0.03025821596 0.0003343088611 -0.0001530701556 )
( 0.03030897677 0.000316153164 -0.0001524136605 )
( 0.02941044979 0.0002912080963 -0.0001402806083 )
( 0.02948215976 0.000274830556 -0.0001409481774 )
( 0.02849580534 0.0002618962899 -0.000117194817 )
( 0.02859023586 0.0002482220298 -0.0001184935245 )
( 0.02709937096 0.0002099817502 -7.528468268e-05 )
( 0.02721907757 0.0001967108838 -8.245765639e-05 )
( 0.02754365467 -0.001179049956 6.513552944e-05 )
( 0.02838436887 -0.0008984454907 7.162296242e-05 )
( 0.0288435854 -0.0006745710853 9.133783897e-05 )
( 0.02917668596 -0.0004909195122 0.0001106527052 )
( 0.02946843207 -0.000340413244 0.0001104169642 )
( 0.02975784428 -0.000216378452 9.30110109e-05 )
( 0.030068269 -0.0001100556983 6.811248022e-05 )
( 0.03039406054 -1.579796299e-05 4.371813702e-05 )
( 0.03070894256 6.865554315e-05 2.626649439e-05 )
( 0.03098708391 0.0001431567798 1.648459511e-05 )
( 0.03120778129 0.0002055894583 6.144824511e-06 )
( 0.03134464473 0.0002527755569 -1.499850805e-05 )
( 0.03136511147 0.0002827982535 -4.985940905e-05 )
( 0.03123602085 0.0002969682682 -9.246688569e-05 )
( 0.03086082824 0.0002842125832 -0.000133234993 )
( 0.03037213534 0.0002898114035 -0.0001510425354 )
( 0.03041704744 0.0002715922019 -0.0001501656225 )
( 0.02954992466 0.0002552460937 -0.0001414598664 )
( 0.02961473539 0.0002386084234 -0.0001414140424 )
( 0.02867561579 0.0002319036721 -0.0001199445542 )
( 0.02875474095 0.0002166156773 -0.0001207617897 )
( 0.02725848742 0.0001736698614 -8.3105464e-05 )
( 0.02737734281 0.0001621779375 -8.516912203e-05 )
( 0.02504583076 0.000122065474 -3.351901614e-05 )
( 0.02575867996 0.0001289513748 -5.759988926e-05 )
( 0.02737444267 -0.001357861562 7.090379222e-05 )
( 0.02827857621 -0.0010679923 7.616386574e-05 )
( 0.02877873927 -0.0008303684881 9.467113705e-05 )
( 0.02914225124 -0.0006327098235 0.0001124835253 )
( 0.02945301495 -0.0004682077561 0.0001104110561 )
( 0.0297538396 -0.0003324730787 9.204650269e-05 )
( 0.03007057123 -0.0002167310158 6.7523506e-05 )
( 0.03039976209 -0.000114771683 4.332797107e-05 )
( 0.0307183601 -2.352838055e-05 2.474775647e-05 )
( 0.03100248985 5.71959572e-05 1.302644614e-05 )
( 0.03123317845 0.0001256797113 1.75810942e-06 )
( 0.0313824527 0.0001794135169 -1.823317143e-05 )
( 0.03141617402 0.0002164009493 -5.028212763e-05 )
( 0.03130115196 0.0002377679048 -8.992079529e-05 )
( 0.0309404321 0.0002340047213 -0.0001296436094 )
( 0.03047340736 0.0002455293143 -0.0001485894318 )
( 0.03051349521 0.0002276778105 -0.0001475477329 )
( 0.02967665903 0.0002192218672 -0.0001412773127 )
( 0.02973422594 0.000202365627 -0.0001409786055 )
( 0.02882415801 0.0002003846312 -0.0001216114833 )
( 0.02889447659 0.0001852931455 -0.0001224072912 )
( 0.0274775289 0.00015025842 -8.673685807e-05 )
( 0.02756297216 0.0001389255922 -8.784101374e-05 )
( 0.02590479888 0.0001187596354 -6.118166493e-05 )
( 0.02604437433 0.0001097774875 -6.331349141e-05 )
( 0.01864228025 3.603161167e-05 -1.556287657e-06 )
( 0.01780977473 3.212275988e-05 -2.13531257e-06 )
( 0.02655315772 -0.001445199829 7.259380072e-05 )
( 0.02720219269 -0.001530214678 7.804740017e-05 )
( 0.02816142887 -0.00122991181 8.230036474e-05 )
( 0.02870090865 -0.0009828957263 9.872710507e-05 )
( 0.02909232304 -0.0007729216013 0.0001147871371 )
( 0.02942482196 -0.000596308324 0.0001108538127 )
( 0.02973942086 -0.0004489144485 9.099782619e-05 )
( 0.03006385267 -0.0003234910546 6.667065463e-05 )
( 0.03039730899 -0.0002133209346 4.302848538e-05 )
( 0.03071985766 -0.0001148576121 2.366243825e-05 )
( 0.03100972809 -2.751967622e-05 1.016063743e-05 )
( 0.03124917299 4.729709326e-05 -2.205043756e-06 )
( 0.03141009435 0.000107627784 -2.14140855e-05 )
( 0.03145609424 0.0001515459735 -5.108603e-05 )
( 0.03135423735 0.000179893017 -8.796052134e-05 )
( 0.03100934997 0.0001846599916 -0.0001261842262 )
( 0.03056243993 0.0002021153341 -0.0001458347542 )
( 0.03059655428 0.0001845834631 -0.0001446488168 )
( 0.02978903241 0.0001833157003 -0.0001405379298 )
( 0.0298399888 0.0001665421296 -0.0001399918547 )
( 0.02896176279 0.0001696349791 -0.0001228824112 )
( 0.02902420983 0.0001546856074 -0.0001231904171 )
( 0.02763771079 0.0001273812522 -8.88451541e-05 )
( 0.02771238238 0.0001158494997 -8.988587069e-05 )
( 0.02614765242 0.0001003513607 -6.480957381e-05 )
( 0.02623644844 9.088076331e-05 -6.596715684e-05 )
( 0.01859935559 2.635121382e-05 -1.458413044e-05 )
( 0.01897439733 1.667264223e-05 -1.948152203e-05 )
( 0.01296627615 1.096833603e-05 5.398945177e-06 )
( 0.01374481898 1.544602856e-05 3.612167802e-06 )
( 0.02636028081 -0.001627030666 8.155333489e-05 )
( 0.02524967492 -0.001625169418 9.196117026e-05 )
( 0.02802534401 -0.001385674579 8.835066546e-05 )
( 0.027024718 -0.001689205063 8.743855869e-05 )
( 0.02860788815 -0.001129995333 0.0001035942623 )
( 0.02902975306 -0.0009099959279 0.0001172812481 )
( 0.02938268334 -0.0007229820476 0.0001117157517 )
( 0.02971353009 -0.0005650727544 9.013032832e-05 )
( 0.03004754707 -0.0004299270222 6.560685142e-05 )
( 0.03038607165 -0.0003113381972 4.273352897e-05 )
( 0.0307131391 -0.000205390912 2.291582678e-05 )
( 0.03100858815 -0.00011121844 7.81937888e-06 )
( 0.03125607222 -2.981743091e-05 -5.711379345e-06 )
( 0.03142796829 3.72127397e-05 -2.44263847e-05 )
( 0.03148616105 8.809478459e-05 -5.211030657e-05 )
( 0.03139612824 0.0001233497314 -8.650506788e-05 )
( 0.03106592409 0.00013645117 -0.0001229656773 )
( 0.03063880838 0.0001593863126 -0.0001428315591 )
( 0.03066879325 0.0001422230416 -0.0001415288571 )
( 0.02988791093 0.0001479695347 -0.0001393280545 )
( 0.02993184887 0.0001313411922 -0.0001385854557 )
( 0.02908350341 0.0001393931452 -0.0001233053044 )
( 0.0291384235 0.0001247925684 -0.0001233202347 )
( 0.02778236941 0.0001044245582 -9.0720765e-05 )
( 0.02784813195 9.310717724e-05 -9.141051851e-05 )
( 0.02631755732 8.147562039e-05 -6.71420712e-05 )
( 0.02639291808 7.218030805e-05 -6.8268826e-05 )
( 0.01904495619 1.043928387e-05 -2.052767195e-05 )
( 0.01909554936 6.012464382e-06 -2.134311762e-05 )
( 0.01388881262 9.817096725e-06 -5.047577361e-06 )
( 0.01308094524 8.553651014e-07 -7.94884545e-06 )
( 0.009108731523 5.433100796e-06 5.509905805e-06 )
( 0.009866770357 6.841774848e-06 1.324004074e-06 )
( 0.02514545992 -0.00172762596 0.0001010402775 )
( 0.02505569719 -0.001803855528 0.0001088347781 )
( 0.02617503703 -0.001794104115 9.133585263e-05 )
( 0.02307783253 -0.001773080439 9.515549755e-05 )
( 0.02849829011 -0.001270546112 0.0001092915991 )
( 0.02787848003 -0.001529673231 9.660240903e-05 )
( 0.02683587372 -0.001835406059 9.848982882e-05 )
( 0.02895220742 -0.001042951597 0.0001199162216 )
( 0.02932790294 -0.0008468779852 0.0001127127471 )
( 0.02967547253 -0.0006797743263 8.960357809e-05 )
( 0.03002095968 -0.0005354979075 6.447250053e-05 )
( 0.03036594577 -0.0004085231922 4.234576409e-05 )
( 0.03069778532 -0.000294998521 2.240199501e-05 )
( 0.0309989918 -0.0001939345966 5.913287623e-06 )
( 0.03125394881 -0.000105821222 -8.769908163e-06 )
( 0.03143608943 -3.19920764e-05 -2.720419252e-05 )
( 0.03150641918 2.589398537e-05 -5.322752259e-05 )
( 0.03142810985 6.807065802e-05 -8.54519385e-05 )
( 0.03111102432 8.930690092e-05 -0.0001200843544 )
( 0.03070350736 0.0001176597216 -0.000139686992 )
( 0.03072735667 0.0001010140841 -0.0001383345661 )
( 0.02997291088 0.000113191636 -0.0001377294393 )
( 0.03001155704 9.705263074e-05 -0.0001363940246 )
( 0.02921274491 0.0001043044249 -0.000123153688 )
( 0.02925887704 9.000367572e-05 -0.0001229416957 )
( 0.02790965885 8.193795657e-05 -9.198321641e-05 )
( 0.02796715684 7.086557889e-05 -9.24855849e-05 )
( 0.02646251023 6.309714081e-05 -6.930461677e-05 )
( 0.02652720734 5.424322808e-05 -7.010505215e-05 )
( 0.01913466305 2.476537475e-06 -2.217861947e-05 )
( 0.0191655755 -5.906396154e-07 -2.296713501e-05 )
( 0.01310921554 -1.531691055e-06 -8.627488569e-06 )
( 0.0131218601 -3.126847105e-06 -9.243583008e-06 )
( 0.009601081721 2.807455076e-06 2.95140353e-07 )
( 0.009111724794 -9.560201306e-07 -3.077279189e-06 )
( 0.007137761917 5.069148301e-06 2.350818249e-06 )
( 0.007646690588 5.535679975e-06 6.835126669e-07 )
( 0.02298996411 -0.00186798675 0.0001129901357 )
( 0.02289734222 -0.00196101889 0.0001300178556 )
( 0.02494590729 -0.001900857664 0.0001183310451 )
( 0.02596507594 -0.001949380501 0.0001027433464 )
( 0.0248561427 -0.001972886268 0.0001253308146 )
( 0.02181280963 -0.001837143209 0.0001171543627 )
( 0.02885951102 -0.001170157455 0.0001228560868 )
( 0.02837308124 -0.001402974245 0.000115543633 )
( 0.02771437541 -0.001664862037 0.0001053671003 )
( 0.02664672397 -0.001964006107 0.0001098918146 )
( 0.02925970405 -0.0009671531152 0.00011361613 )
( 0.02962574735 -0.0007919163909 8.939590771e-05 )
( 0.02998303622 -0.000639424019 6.344167195e-05 )
( 0.03033653274 -0.0005044382997 4.182247358e-05 )
( 0.03067359328 -0.0003834250965 2.199637129e-05 )
( 0.03098052368 -0.0002755277965 4.35674292e-06 )
( 0.0312427897 -0.0001807434019 -1.14180375e-05 )
( 0.03143464774 -0.0001000796401 -2.9709925e-05 )
( 0.03151639923 -3.516242941e-05 -5.435143612e-05 )
( 0.03144977614 1.395440813e-05 -8.469483873e-05 )
( 0.03114643693 4.312308374e-05 -0.0001175956495 )
( 0.03075524792 7.708173507e-05 -0.0001365010539 )
( 0.03077435121 6.06224894e-05 -0.0001352438267 )
( 0.03004616126 7.947712584e-05 -0.0001353379339 )
( 0.03007703833 6.334625505e-05 -0.0001345713681 )
( 0.02930159867 7.541266677e-05 -0.0001224437292 )
( 0.0293420665 6.189739361e-05 -0.0001212182324 )
( 0.02804443054 5.535966193e-05 -9.305770072e-05 )
( 0.02809191495 4.456537499e-05 -9.333040362e-05 )
( 0.02658693306 4.554814586e-05 -7.086661935e-05 )
( 0.02664178982 3.699080116e-05 -7.158503286e-05 )
( 0.01918951608 -3.380733006e-06 -2.38246248e-05 )
( 0.01920742728 -6.00295698e-06 -2.451411819e-05 )
( 0.01312525384 -4.374808668e-06 -9.841668543e-06 )
( 0.01315103844 -5.400609552e-06 -1.02286258e-05 )
( 0.009098637849 -1.906569764e-06 -3.739173735e-06 )
( 0.009098292328 -2.642595291e-06 -4.118116067e-06 )
( 0.007317491807 2.198749371e-06 3.757377272e-06 )
( 0.00708977785 -4.242166369e-07 -1.190365992e-06 )
( 0.02173626795 -0.001935877255 0.0001377772714 )
( 0.02165521123 -0.002033037366 0.0001557461219 )
( 0.02280238643 -0.002052209573 0.0001446911192 )
( 0.02473917231 -0.002063327236 0.0001331313397 )
( 0.02464113571 -0.002127741463 0.0001378598099 )
( 0.02576335892 -0.002091443399 0.000112424721 )
( 0.02271009609 -0.002136220224 0.00015483264 )
( 0.02039287798 -0.001898522372 0.0001526265987 )
( 0.02917841636 -0.001082305098 0.0001144024718 )
( 0.02875254303 -0.001290201326 0.0001260997815 )
( 0.02823444642 -0.001525892178 0.0001222735154 )
( 0.0275432691 -0.001785882283 0.0001163739362 )
( 0.02643562481 -0.002083899453 0.0001199201361 )
( 0.02956423908 -0.0009006196051 8.937984239e-05 )
( 0.02993461303 -0.0007408832898 6.263727846e-05 )
( 0.03029623628 -0.0005985026364 4.118891957e-05 )
( 0.0306404382 -0.0004703196755 2.157133349e-05 )
( 0.03095335886 -0.0003557553282 3.046943675e-06 )
( 0.03122249059 -0.0002544802555 -1.370241353e-05 )
( 0.03142399341 -0.0001670662896 -3.192701479e-05 )
( 0.03151625395 -9.513273108e-05 -5.540867642e-05 )
( 0.0314608328 -3.907114296e-05 -8.413626347e-05 )
( 0.03117103316 -1.844388407e-06 -0.0001153527701 )
( 0.03079658747 3.702718459e-05 -0.0001336415007 )
( 0.03081161901 2.108265107e-05 -0.0001323983015 )
( 0.03010522947 4.644300498e-05 -0.0001330627711 )
( 0.03013029695 3.069981904e-05 -0.0001318625727 )
( 0.02937757596 4.762240133e-05 -0.0001208725225 )
( 0.02940998785 3.383958392e-05 -0.0001206118395 )
( 0.02813568898 3.387347533e-05 -9.359839896e-05 )
( 0.02817589045 2.345701614e-05 -9.34060663e-05 )
( 0.02671384439 2.505161137e-05 -7.256070967e-05 )
( 0.02675746381 1.684116069e-05 -7.299574645e-05 )
( 0.01921944506 -8.508211977e-06 -2.521523675e-05 )
( 0.01922587492 -1.093049923e-05 -2.592653618e-05 )
( 0.01314351894 -6.288668374e-06 -1.079875165e-05 )
( 0.01313168369 -7.103324151e-06 -1.124217124e-05 )
( 0.009090981446 -3.210486739e-06 -4.566841199e-06 )
( 0.009194795042 -3.683860768e-06 -4.439836175e-06 )
( 0.007048806176 -1.300903477e-06 -1.880210903e-06 )
( 0.007048067637 -1.939635013e-06 -2.198187758e-06 )
( 0.02033414133 -0.002001851099 0.0001714753162 )
( 0.02027324215 -0.002099529142 0.0001861960627 )
( 0.02157472074 -0.002122840378 0.0001684716699 )
( 0.02258596756 -0.002244415227 0.0001647680911 )
( 0.02250022627 -0.002312518423 0.0001707893098 )
( 0.02453374676 -0.002206900623 0.000142762583 )
( 0.02444672026 -0.00226210407 0.0001455011516 )
( 0.0255522579 -0.002217629459 0.0001195224322 )
( 0.02149832435 -0.002204467775 0.0001755712001 )
( 0.01821634546 -0.001942249713 0.0002018443483 )
( 0.02949066833 -0.001004736638 8.941878332e-05 )
( 0.02908459678 -0.001191070885 0.0001151914767 )
( 0.02863303199 -0.00140201929 0.0001294260001 )
( 0.02808444016 -0.001638272312 0.0001295806433 )
( 0.02735888958 -0.001896062517 0.0001274984825 )
( 0.02622400224 -0.002192160115 0.0001293347887 )
( 0.0298755262 -0.0008390739094 6.211591972e-05 )
( 0.03024583682 -0.0006900743465 4.050179996e-05 )
( 0.0305971913 -0.0005552244256 2.102797589e-05 )
( 0.03091702424 -0.0004343186738 1.863993703e-06 )
( 0.03119347245 -0.0003268285363 -1.568448351e-05 )
( 0.03140355647 -0.0002328814735 -3.385806485e-05 )
( 0.0315063782 -0.0001540249941 -5.635291018e-05 )
( 0.03146176413 -9.104720084e-05 -8.36844265e-05 )
( 0.03118458018 -4.60854535e-05 -0.000113529728 )
( 0.03082739934 -1.739736945e-06 -0.0001308292412 )
( 0.0308371298 -1.732771125e-05 -0.0001296990959 )
( 0.03015290946 1.404101567e-05 -0.0001307589118 )
( 0.03017190844 -1.659328063e-06 -0.000129826949 )
( 0.02943908423 2.020252759e-05 -0.000119469958 )
( 0.02946513891 7.103258213e-06 -0.0001184968278 )
( 0.02821146883 1.307725142e-05 -9.33874253e-05 )
( 0.02824326046 2.750273779e-06 -9.358702664e-05 )
( 0.02679641172 8.735108167e-06 -7.347631617e-05 )
( 0.02683144994 8.139159036e-07 -7.365785132e-05 )
( 0.01922490261 -1.434359729e-05 -2.697734817e-05 )
( 0.01921893284 -1.659187183e-05 -2.764829878e-05 )
( 0.01311566308 -7.8627736e-06 -1.170254109e-05 )
( 0.01309571695 -8.597063243e-06 -1.217300451e-05 )
( 0.009204003029 -4.063274446e-06 -4.696427823e-06 )
( 0.009186484851 -4.400437774e-06 -5.021589914e-06 )
( 0.007041911595 -2.408430191e-06 -2.594970056e-06 )
( 0.007206726819 -2.808958925e-06 -2.187237214e-06 )
( 0.01819449849 -0.002049688715 0.000213624764 )
( 0.02021509409 -0.002186174272 0.0001944886608 )
( 0.01817172952 -0.002145988401 0.0002190811647 )
( 0.02139204182 -0.002312844852 0.0001819770696 )
( 0.02132508345 -0.002380971797 0.0001859945769 )
( 0.0224200543 -0.002378277946 0.0001740144799 )
( 0.02233483642 -0.002438759198 0.0001754201803 )
( 0.02432936803 -0.002332217526 0.0001479446073 )
( 0.02534271032 -0.002329261042 0.0001260976424 )
( 0.02424584888 -0.002382882405 0.0001460452622 )
( 0.02015949972 -0.002264387673 0.0001968703436 )
( 0.02980507538 -0.0009331032634 6.184581434e-05 )
( 0.02940601297 -0.00110315904 8.948639879e-05 )
( 0.02897951007 -0.001292516245 0.0001159901803 )
( 0.02850269899 -0.001504735555 0.0001327712089 )
( 0.02792449668 -0.001739636762 0.0001373289269 )
( 0.02716206945 -0.00199538935 0.0001383774943 )
( 0.0260038916 -0.002280451357 0.0001351822721 )
( 0.03018584661 -0.0007785046473 3.984913201e-05 )
( 0.03054439835 -0.0006376417587 2.0319123e-05 )
( 0.03087149188 -0.0005108574987 7.058374649e-07 )
( 0.03115558252 -0.0003975297732 -1.74367342e-05 )
( 0.03137365356 -0.0002973690862 -3.552491398e-05 )
( 0.0314863883 -0.0002117884287 -5.716087981e-05 )
( 0.03145298362 -0.0001419836044 -8.327270916e-05 )
( 0.03118756041 -8.939765394e-05 -0.000111947491 )
( 0.03084614128 -3.99216442e-05 -0.0001284278842 )
( 0.03085103817 -5.530597264e-05 -0.0001274858514 )
( 0.03018791601 -1.774827433e-05 -0.0001286682527 )
( 0.03020043671 -3.318906965e-05 -0.0001276057155 )
( 0.029487608 -6.558888344e-06 -0.0001180786057 )
( 0.02950667776 -1.970337871e-05 -0.0001175791622 )
( 0.02827206254 -7.376219401e-06 -9.342623525e-05 )
( 0.02829722129 -1.733669706e-05 -9.312068141e-05 )
( 0.02686167508 -7.020921657e-06 -7.395236753e-05 )
( 0.02688732557 -1.481323488e-05 -7.450856356e-05 )
( 0.01920834929 -1.876699025e-05 -2.820342888e-05 )
( 0.01919254102 -2.088268957e-05 -2.886068432e-05 )
( 0.01305933949 -9.641920769e-06 -1.288777366e-05 )
( 0.01303071342 -1.03214179e-05 -1.339491791e-05 )
( 0.009166188538 -4.70786199e-06 -5.367684935e-06 )
( 0.009143153206 -5.007964774e-06 -5.717100066e-06 )
( 0.007243775297 -3.123241186e-06 -2.285042001e-06 )
( 0.007229795214 -3.395048907e-06 -2.573507345e-06 )
( 0.01814835146 -0.002232170198 0.0002168131905 )
( 0.02008042485 -0.002370837843 0.0001949956059 )
( 0.02003067732 -0.002439662116 0.00019285077 )
( 0.02125756443 -0.002445331775 0.0001861862693 )
( 0.02118205838 -0.002505729208 0.0001852710557 )
( 0.02224702202 -0.002498204587 0.0001753341348 )
( 0.02511958592 -0.002422232414 0.0001271508809 )
( 0.02404826321 -0.002488919301 0.0001437208412 )
( 0.02413622662 -0.002444495214 0.0001460985368 )
( 0.02217226475 -0.002555269282 0.0001742753084 )
( 0.01812510937 -0.002311241115 0.000205231001 )
( 0.03011521697 -0.0008631065139 3.930762614e-05 )
( 0.02972459421 -0.001022045617 6.17740734e-05 )
( 0.02931106463 -0.001195021905 8.96427955e-05 )
( 0.02886412665 -0.001385913696 0.0001167444134 )
( 0.02836298384 -0.001597729512 0.0001362028997 )
( 0.02775531262 -0.00182986015 0.0001455436577 )
( 0.02696005628 -0.002080227714 0.0001487891568 )
( 0.02577723935 -0.002354978118 0.0001402116759 )
( 0.03048250452 -0.0007170593017 1.947977398e-05 )
( 0.03081680089 -0.0005849712761 -4.937533049e-07 )
( 0.031108547 -0.0004662830906 -1.901608812e-05 )
( 0.03133467212 -0.0003603123187 -3.696857311e-05 )
( 0.03145609424 -0.0002683171479 -5.78271538e-05 )
( 0.0314337723 -0.000191854866 -8.285620424e-05 )
( 0.03118012846 -0.0001317826973 -0.0001105400152 )
( 0.03085391223 -7.730355719e-05 -0.0001262554433 )
( 0.03085412644 -9.234557365e-05 -0.0001254310191 )
( 0.03021020629 -4.874687147e-05 -0.0001259884448 )
( 0.03021685407 -6.391006173e-05 -0.0001251736394 )
( 0.02952236123 -3.304389975e-05 -0.0001168182498 )
( 0.02953498624 -4.574370905e-05 -0.0001157087681 )
( 0.02831777371 -2.73028727e-05 -9.32408293e-05 )
( 0.0283352714 -3.701094101e-05 -9.286274872e-05 )
( 0.02690897882 -2.242509981e-05 -7.480338536e-05 )
( 0.02692648396 -2.992884583e-05 -7.509381976e-05 )
( 0.01917214319 -2.295938975e-05 -2.967441105e-05 )
( 0.01914739795 -2.495681838e-05 -3.038201248e-05 )
( 0.01299867779 -1.0977682e-05 -1.388290457e-05 )
( 0.01293651573 -1.157822044e-05 -1.473051725e-05 )
( 0.009117534384 -5.299470558e-06 -6.078864772e-06 )
( 0.009075749665 -5.716575743e-06 -6.630439202e-06 )
( 0.007213653531 -3.642062666e-06 -2.880547299e-06 )
( 0.007195363753 -3.884102171e-06 -3.188028586e-06 )
( 0.01809054241 -0.002416623989 0.0001788936934 )
( 0.01806646585 -0.002485074801 0.0001621337433 )
( 0.01996966079 -0.002504127333 0.0001883465593 )
( 0.01991766505 -0.002563128481 0.000182395248 )
( 0.02111342177 -0.002562721493 0.0001844869403 )
( 0.02489668131 -0.002498310292 0.0001295064867 )
( 0.02393011376 -0.002541113179 0.0001421217166 )
( 0.02384411916 -0.002575645223 0.000141422759 )
( 0.02204311825 -0.002644503023 0.0001731744414 )
( 0.02212398127 -0.002590298885 0.0001737582206 )
( 0.0210487619 -0.002620886313 0.0001850095286 )
( 0.0304111708 -0.0007929334533 1.859659096e-05 )
( 0.03003504127 -0.0009431521175 3.891723463e-05 )
( 0.02963435277 -0.001105117612 6.190372369e-05 )
( 0.02920646407 -0.001279645483 8.990940114e-05 )
( 0.02873957716 -0.001470729243 0.0001174375284 )
( 0.0282148663 -0.001680584275 0.0001399193279 )
( 0.02757793479 -0.001908433158 0.000153908215 )
( 0.02675329335 -0.002150523011 0.0001578600204 )