/*--------------------------------*- C++ -*----------------------------------*\
  =========                 |
  \\      /  F ield         | OpenFOAM: The Open Source CFD Toolbox
   \\    /   O peration     | Website:  https://openfoam.org
    \\  /    A nd           | Version:  8
     \\/     M anipulation  |
\*---------------------------------------------------------------------------*/






FoamFile
{
    version     2.0;
    format      ascii;
    class       volVectorField;
    location    "0";
    object      UDDES;
}
// * * * * * * * * * * * * * * * * * * * * * * * * * * * * * * * * * * * * * //

dimensions      [0 1 -1 0 0 0 0];


internalField   nonuniform List<vector> 
11509
(
( -0.003034112509 0.000110233661 -0.0001399690809 )
( -0.002996726893 -9.207087714e-08 -0.0001352327963 )
( -0.003820951097 0.0001271481306 -8.110047202e-05 )
( -0.002442015801 -5.414667248e-05 -0.0001621457923 )
( -0.003797846148 3.073698463e-05 -6.945357018e-05 )
( -0.002977964701 -0.0001074297106 -0.0001274827082 )
( -0.004199074581 0.0001275331742 -4.532328603e-05 )
( -0.00419473974 0.0001556220814 -5.216245336e-05 )
( -0.002403264167 -0.0003387960605 -0.0001449861738 )
( -0.001513649011 -8.100179548e-05 -0.0001856445451 )
( -0.004189766943 7.124009426e-05 -3.644401295e-05 )
( -0.003772773081 -0.0001006204257 -5.592260277e-05 )
( -0.004181777127 2.861385656e-05 -3.005315739e-05 )
( -0.002956471872 -0.0002896241494 -0.0001142881665 )
( -0.004478286486 0.0001390214893 -1.961427552e-05 )
( -0.004457802977 0.0001609370083 -3.037100214e-05 )
( -0.002411076799 -0.0007348657236 -0.000108206048 )
( -0.002948392881 -0.0004527665442 -0.000100879508 )
( -0.001475011231 -0.0003177633625 -0.0001713848469 )
( -0.0006424977328 -0.0001301456359 -0.000194653272 )
( -0.004480641801 8.677256847e-05 -9.969127859e-06 )
( -0.004159652628 -0.0001051843283 -1.647949284e-05 )
( -0.003747368231 -0.0002678985184 -4.401464321e-05 )
( -0.004170826636 -5.029320164e-05 -2.120707904e-05 )
( -0.004485828802 4.862411151e-05 -2.447276984e-06 )
( -0.004744556267 0.0001348740043 -2.917045094e-07 )
( -0.004732947797 0.0001580518438 -1.097281256e-05 )
( -0.002942561172 -0.0007068829727 -8.04672236e-05 )
( -0.002520729322 -0.001200255705 -5.414296902e-05 )
( -0.001482157153 -0.0006481985911 -0.0001379082096 )
( -0.002956063952 -0.0009120929171 -6.477817806e-05 )
( -0.003721922869 -0.0004736406845 -3.219852442e-05 )
( -0.0006025951589 -0.0003250575101 -0.0001764853369 )
( 9.992156993e-05 -0.0001762155152 -0.0002115091047 )
( -0.004745824728 9.14642078e-05 9.138566384e-06 )
( -0.004139053635 -0.0002087930043 -9.166968994e-06 )
( -0.004464407917 -8.038304804e-05 9.965122445e-06 )
( -0.00412471313 -0.0002808755962 -6.894190847e-06 )
( -0.004471411463 -2.549754936e-05 4.357220405e-06 )
( -0.004739126191 5.29913741e-05 1.642622556e-05 )
( -0.004899736494 0.0001282759622 1.037514721e-05 )
( -0.00488710124 0.0001456671453 -9.715731721e-07 )
( -0.003701125272 -0.0007085425314 -2.160576878e-05 )
( -0.002768919803 -0.001444225432 -2.476829832e-05 )
( -0.003180759028 -0.001371536287 -2.020229294e-05 )
( -0.001565270475 -0.001045722049 -8.18744229e-05 )
( -0.002258312656 -0.001409811666 -3.398107583e-05 )
( -0.003061747644 -0.001201236737 -3.612177898e-05 )
( -0.0006213131128 -0.0005943320575 -0.0001437497413 )
( -0.003688073251 -0.0009586975211 -1.228691144e-05 )
( -0.004084076732 -0.0004941798397 -6.682944331e-07 )
( -0.004098274745 -0.0004104427644 -1.881462595e-06 )
( 0.0001309384679 -0.0003323821584 -0.0001886174869 )
( -0.004896813072 8.877604705e-05 2.060899169e-05 )
( -0.004435586743 -0.0001761808962 1.41678629e-05 )
( -0.004709612578 -6.703961117e-05 2.822660463e-05 )
( -0.004415176809 -0.0002530117054 1.60635318e-05 )
( -0.004728055559 -1.324784716e-05 2.440284516e-05 )
( -0.004896541126 5.498589235e-05 2.944735388e-05 )
( -0.004961056169 0.000118478798 1.01022415e-05 )
( -0.004944374319 0.0001336105342 -2.761856422e-06 )
( -0.004060054198 -0.0006429724162 4.839625035e-06 )
( -0.004047188908 -0.0007344249752 6.133334409e-06 )
( -0.003381305141 -0.001585907768 4.795792847e-06 )
( -0.002893879544 -0.001721319277 -1.007486617e-06 )
( -0.003733821679 -0.001419185079 1.161350701e-05 )
( -0.001714465208 -0.001445967355 -2.597867933e-05 )
( -0.0007026715903 -0.0009214890888 -8.938554674e-05 )
( -0.002312009688 -0.00160251651 -1.704413444e-05 )
( -0.0036776138 -0.001207480556 -1.341383268e-06 )
( 0.000107662243 -0.0005472818157 -0.0001559329103 )
( -0.004015099723 -0.0009861779399 1.066539153e-05 )
( -0.004028477706 -0.0008919696556 7.36759057e-06 )
( -0.004355188925 -0.0004641953565 1.896329195e-05 )
( -0.004378993995 -0.0003718523658 1.793931369e-05 )
( -0.004966529552 8.792645531e-05 2.165522528e-05 )
( -0.004681149032 -0.0001572819601 3.283880142e-05 )
( -0.004862742964 -5.525027882e-05 4.36094524e-05 )
( -0.004651644267 -0.0002281123743 3.314227069e-05 )
( -0.004878881853 -3.363465567e-06 3.735392238e-05 )
( -0.004968042485 5.764019079e-05 3.214706885e-05 )
( -0.004923623521 0.0001060355498 1.977396778e-06 )
( -0.00489910366 0.000118220305 -1.125667768e-05 )
( -0.004319333937 -0.0006002207519 2.094840602e-05 )
( -0.004297317937 -0.0007037719479 2.136162038e-05 )
( -0.003397140885 -0.001827656291 2.022723493e-05 )
( -0.003631286323 -0.001531047048 1.353002881e-05 )
( -0.00365775777 -0.001630939543 1.877975046e-05 )
( -0.003074801294 -0.001966699259 2.056478479e-05 )
( -0.003969286103 -0.001460437314 3.02330518e-05 )
( -0.00380150741 -0.001546576736 2.477398812e-05 )
( -0.003964398988 -0.001360870432 2.169207437e-05 )
( -0.0008529312327 -0.001282128738 -1.844132566e-05 )
( -0.00204495457 -0.001908316393 3.729128366e-05 )
( 2.820525151e-05 -0.000809253077 -9.933151159e-05 )
( -0.002506277524 -0.00187609205 1.464134039e-05 )
( -0.003987972159 -0.001138873864 1.3244201e-05 )
( -0.003995925188 -0.001217941055 1.832833186e-05 )
( -0.004238222726 -0.0009573841817 2.190679515e-05 )
( -0.004265979398 -0.0008480309625 2.133210182e-05 )
( -0.004572336096 -0.0004291408695 3.389305493e-05 )
( -0.004610498436 -0.000342452171 3.507879592e-05 )
( -0.004938298371 8.444795822e-05 1.472085842e-05 )
( -0.004826584831 -0.000132986519 4.702287697e-05 )
( -0.004936135374 -3.709052908e-05 4.936770711e-05 )
( -0.004793900065 -0.0002039468818 4.865018127e-05 )
( -0.004955393262 9.79179913e-06 4.173904381e-05 )
( -0.004945510533 5.884984785e-05 2.706526357e-05 )
( -0.004767907783 9.141514602e-05 -7.241335879e-06 )
( -0.004733734298 9.95717055e-05 -2.013277481e-05 )
( -0.004523407668 -0.0005641012103 3.617781476e-05 )
( -0.004480693489 -0.0006634841557 3.62101855e-05 )
( -0.003316530958 -0.001993135316 2.78077132e-05 )
( -0.003491800278 -0.002030441305 3.878530697e-05 )
( -0.003656100482 -0.001931462553 4.015071318e-05 )
( -0.003648706945 -0.001833876711 3.346279846e-05 )
( -0.003838117467 -0.001691953279 3.592117719e-05 )
( -0.003150148783 -0.00221332931 4.39896794e-05 )
( -0.003366513643 -0.002087189117 3.478787767e-05 )
( -0.003962611314 -0.001570029533 4.130236994e-05 )
( -0.004070170224 -0.001453228062 4.250178972e-05 )
( -0.004139737226 -0.001317447983 3.890967491e-05 )
( -0.001038146671 -0.001612850814 4.887194518e-05 )
( -0.000104230945 -0.001096409629 -1.972421705e-05 )
( -0.001936241752 -0.002086007968 7.367503713e-05 )
( -0.002632034011 -0.002078543883 3.832099173e-05 )
( -0.002321049338 -0.002202109201 6.892356032e-05 )
( -0.004198690876 -0.001102440408 2.866465002e-05 )
( -0.004152599722 -0.001199568505 3.329736501e-05 )
( -0.004385347478 -0.0009137275629 3.998845568e-05 )
( -0.004432766698 -0.0008087904425 3.614621528e-05 )
( -0.004691565409 -0.0003934264823 4.803380216e-05 )
( -0.004741508514 -0.0003024544567 4.878650725e-05 )
( -0.004792895168 7.624978753e-05 5.771070391e-06 )
( -0.004900103435 -0.0001035090245 5.461570254e-05 )
( -0.004920871928 -1.777933539e-05 4.776032074e-05 )
( -0.004856191576 -0.0001706996409 5.721541675e-05 )
( -0.004938980564 2.264272007e-05 3.842749356e-05 )
( -0.00480856467 5.694036372e-05 1.906560647e-05 )
( -0.004478569608 7.432118582e-05 -1.500880353e-05 )
( -0.004434449133 7.907354302e-05 -2.666248656e-05 )
( -0.004623582121 -0.0005107886391 4.769664883e-05 )
( -0.00456294138 -0.0006155638257 4.824641655e-05 )
( -0.003650932107 -0.002074039541 4.891772187e-05 )
( -0.003539014142 -0.002170768799 4.669591362e-05 )
( -0.003786624875 -0.001956904773 5.339190102e-05 )
( -0.003837615252 -0.001821055776 4.524535325e-05 )
( -0.003992676735 -0.001686186763 5.206778224e-05 )
( -0.003302340163 -0.002391639166 6.128456153e-05 )
( -0.003393316641 -0.002318596933 5.194521509e-05 )
( -0.003100714879 -0.00236339611 6.122458581e-05 )
( -0.003355402965 -0.002245947951 4.383414125e-05 )
( -0.004055552185 -0.001547765336 5.38635577e-05 )
( -0.004131648224 -0.001364280703 5.737596803e-05 )
( -0.004190904554 -0.001262926497 5.384438919e-05 )
( -0.00143399532 -0.001998328371 9.912447422e-05 )
( -0.0002382787206 -0.001355765969 6.384740118e-05 )
( -0.002030011499 -0.002252456732 9.237314953e-05 )
( -0.002829651814 -0.002370195929 6.808537e-05 )
( -0.002553444821 -0.002459385898 8.914156933e-05 )
( -0.004313160665 -0.00105251756 4.27709092e-05 )
( -0.00426897034 -0.001124842558 5.1696632e-05 )
( -0.004423276521 -0.0008442226681 5.114925807e-05 )
( -0.004490069579 -0.0007416654844 4.959364378e-05 )
( -0.004729692824 -0.0003477998544 5.66395538e-05 )
( -0.004796655383 -0.0002582830784 5.771161159e-05 )
( -0.004514291417 6.437915727e-05 -2.422326361e-06 )
( -0.004885083996 -7.139527588e-05 5.426995631e-05 )
( -0.004797159694 -1.48325671e-06 4.196926602e-05 )
( -0.004835202359 -0.000131497276 5.817275087e-05 )
( -0.004810144659 3.008753811e-05 3.166706301e-05 )
( -0.004540126305 5.105898163e-05 1.072841951e-05 )
( -0.004039186053 5.620497541e-05 -1.945196891e-05 )
( -0.003987336531 5.845341366e-05 -2.9657087e-05 )
( -0.004647684749 -0.0004561783571 5.598623102e-05 )
( -0.004562820774 -0.0005626135971 5.563849118e-05 )
( -0.003767306916 -0.002070207382 6.087951624e-05 )
( -0.003698655171 -0.002193131717 5.914941721e-05 )
( -0.003545377171 -0.002301573288 5.326583414e-05 )
( -0.003866569605 -0.001879024552 6.696584751e-05 )
( -0.003919919487 -0.001811593655 6.071427197e-05 )
( -0.003995841835 -0.001632069587 6.127058441e-05 )
( -0.003455621656 -0.002472451655 6.795558875e-05 )
( -0.003325354308 -0.002575134858 7.605539577e-05 )
( -0.003512844443 -0.002430420136 6.239211507e-05 )
( -0.003138081869 -0.00251675304 7.376947178e-05 )
( -0.004047533497 -0.001456382684 6.067254799e-05 )
( -0.004038811196 -0.001288043917 6.161221972e-05 )
( -0.004125619307 -0.001167635433 5.987386976e-05 )
( -0.000423802383 -0.001570412423 0.00011951536 )
( -0.001774658682 -0.002301588189 0.0001168558665 )
( -0.00140388275 -0.002141735284 0.0001328521466 )
( -0.002296366263 -0.002535280539 0.0001068130587 )
( -0.002778769471 -0.002494550776 8.351193537e-05 )
( -0.002968417946 -0.00255953148 8.04338415e-05 )
( -0.002867600182 -0.002615055302 9.006272012e-05 )
( -0.002686449792 -0.002701869933 9.71289046e-05 )
( -0.004335536156 -0.0009534806013 5.44966897e-05 )
( -0.00426279474 -0.001020517433 5.701321061e-05 )
( -0.004382543266 -0.0007910383865 5.684484495e-05 )
( -0.004470801912 -0.0006836174871 5.599914221e-05 )
( -0.004687279463 -0.0002905121073 5.857666838e-05 )
( -0.004767667502 -0.0002072135976 5.909305764e-05 )
( -0.004084191751 5.035892536e-05 -8.209818589e-06 )
( -0.004764609039 -4.319773871e-05 4.978433572e-05 )
( -0.004547706805 9.555623365e-06 3.386751996e-05 )
( -0.004713357426 -9.364609286e-05 5.461342516e-05 )
( -0.004551922437 3.240095975e-05 2.332400436e-05 )
( -0.004120006692 4.215810986e-05 3.803100526e-06 )
( -0.003448182251 3.91234862e-05 -2.001555913e-05 )
( -0.003393593244 3.984225623e-05 -2.843815309e-05 )
( -0.004589559045 -0.0003888594219 5.715348743e-05 )
( -0.004479919095 -0.0004928090493 5.590085857e-05 )
( -0.00377766462 -0.001980641158 7.594270573e-05 )
( -0.003718935652 -0.002136311261 7.040422497e-05 )
( -0.003640946466 -0.002300562104 6.716541247e-05 )
( -0.003834244562 -0.001782994717 7.368921797e-05 )
( -0.003917913884 -0.001716184197 6.755155482e-05 )
( -0.003905115649 -0.001548952423 6.854870298e-05 )
( -0.003515766701 -0.002490290673 7.710823411e-05 )
( -0.00345125841 -0.002566320822 8.331784193e-05 )
( -0.003317038529 -0.002707801992 8.157397679e-05 )
( -0.003598549403 -0.002397231059 7.505880058e-05 )
( -0.00317304628 -0.0026623616 8.142095612e-05 )
( -0.003952130675 -0.00143737474 6.619195483e-05 )
( -0.003977492917 -0.001365123084 6.480129377e-05 )
( -0.003845309839 -0.001192945521 5.753132427e-05 )
( -0.003930291161 -0.001087877434 5.528826296e-05 )
( -0.004177423194 -0.001035142224 5.847948341e-05 )
( -0.0009401114658 -0.001995169092 0.0001554375922 )
( -0.00212591514 -0.002613942837 0.0001180489271 )
( -0.001551495166 -0.002314774785 0.0001391012775 )
( -0.002344791545 -0.002666223096 0.0001114846018 )
( -0.002542026807 -0.002733175177 0.0001074178799 )
( -0.00305939815 -0.002715989714 8.677734149e-05 )
( -0.002910763025 -0.002757843351 9.295601922e-05 )
( -0.002952134237 -0.002831357531 9.356232476e-05 )
( -0.002808176912 -0.002898078877 9.691173182e-05 )
( -0.002724124119 -0.002834975021 9.995087021e-05 )
( -0.004286410287 -0.000890719879 5.780406718e-05 )
( -0.00421579089 -0.0009643458761 5.823057654e-05 )
( -0.004256388638 -0.0007205210859 5.444989802e-05 )
( -0.004364487715 -0.0006094047567 5.480948676e-05 )
( -0.004551217426 -0.0002317291219 5.616429917e-05 )
( -0.004640873522 -0.0001567793224 5.636579954e-05 )
( -0.003498058068 3.615457535e-05 -1.064128173e-05 )
( -0.004522703122 -2.145427061e-05 4.203885692e-05 )
( -0.004150079563 1.538832657e-05 2.508394391e-05 )
( -0.004475036636 -6.044307884e-05 4.735773109e-05 )
( -0.004142885562 3.039115472e-05 1.545157102e-05 )
( -0.003540582955 3.176477912e-05 -5.439886195e-07 )
( -0.002733298577 2.426869833e-05 -1.718600652e-05 )
( -0.002682587598 2.426822721e-05 -2.372436575e-05 )
( -0.004438931122 -0.0003186424437 5.491169941e-05 )
( -0.004305392038 -0.0004156219075 5.274148862e-05 )
( -0.003731205827 -0.002030756557 8.335091115e-05 )
( -0.003713608719 -0.001894969027 8.381081716e-05 )
( -0.003671368584 -0.002205865458 8.207237988e-05 )
( -0.003734856611 -0.001787688583 8.010296006e-05 )
( -0.003755106824 -0.001721958048 7.667679165e-05 )
( -0.00381041551 -0.001649313257 7.183184061e-05 )
( -0.003710837569 -0.001466958784 6.401394785e-05 )
( -0.003486296628 -0.002511372324 9.047357889e-05 )
( -0.003527244553 -0.002448272659 8.39944405e-05 )
( -0.00336454506 -0.002682755701 8.967114263e-05 )
( -0.003287490224 -0.002775062108 8.779024211e-05 )
( -0.003546339925 -0.002288130578 9.39235033e-05 )
( -0.003246179782 -0.002765247133 8.670127136e-05 )
( -0.003764362074 -0.001365715521 6.197300536e-05 )
( -0.003791162279 -0.001277943375 6.015643885e-05 )
( -0.003571354551 -0.001093491679 4.832715786e-05 )
( -0.003659153357 -0.000994394999 4.78609436e-05 )
( -0.004007623531 -0.0009808938485 5.371104999e-05 )
( -0.001017109258 -0.002145198174 0.0001649540936 )
( -0.001338820904 -0.002307441086 0.0001480063656 )
( -0.002336777514 -0.002789077815 0.0001105598058 )
( -0.002415116876 -0.002772595501 0.0001106736163 )
( -0.002136550378 -0.002697511576 0.0001147778312 )
( -0.001924239798 -0.002626534551 0.0001194165889 )
( -0.002684694715 -0.002927554771 0.0001008165054 )
( -0.003092464292 -0.002829469973 9.03553082e-05 )
( -0.003018793883 -0.002970587928 9.256648627e-05 )
( -0.003103552153 -0.002906091046 9.256208432e-05 )
( -0.002925934503 -0.003025402315 9.651301662e-05 )
( -0.002815658227 -0.00295555708 9.734208288e-05 )
( -0.004149451852 -0.0008150437498 5.446944851e-05 )
( -0.004062006716 -0.0008912588819 5.417530338e-05 )
( -0.00403578626 -0.0006384792505 4.888196781e-05 )
( -0.004161443561 -0.0005261814222 5.050103209e-05 )
( -0.004308266565 -0.0001756535203 4.952317249e-05 )
( -0.004402574152 -0.0001121794558 4.932200318e-05 )
( -0.002781317802 2.301518907e-05 -1.000905468e-05 )
( -0.004136743955 -5.903065357e-06 3.279220255e-05 )
( -0.003591050627 1.652749961e-05 1.738271021e-05 )
( -0.004098495003 -3.416502295e-05 3.780781481e-05 )
( -0.003572569694 2.520780436e-05 9.24259075e-06 )
( -0.002824459691 2.104441592e-05 -2.35055677e-06 )
( -0.001948265359 1.25566512e-05 -1.245382191e-05 )
( -0.001907844562 1.237459674e-05 -1.69756695e-05 )
( -0.004186371807 -0.0002508520847 4.822201299e-05 )
( -0.004031083547 -0.0003372404026 4.575179628e-05 )
( -0.003651938168 -0.00195827242 8.993470692e-05 )
( -0.003638715716 -0.002021847526 9.182633949e-05 )
( -0.003503697924 -0.001790040638 8.336384053e-05 )
( -0.00359717547 -0.002183516044 9.560478793e-05 )
( -0.003601614153 -0.002112677554 9.512632096e-05 )
( -0.003542117309 -0.001711925725 7.749664655e-05 )
( -0.003562324448 -0.001629273873 7.270234346e-05 )
( -0.003622468561 -0.001556438976 6.797788956e-05 )
( -0.003447922878 -0.001354532549 5.428080476e-05 )
( -0.003456066828 -0.002418723656 9.915435658e-05 )
( -0.003423718968 -0.002471833024 0.0001020439522 )
( -0.003470391035 -0.002391400281 9.565021901e-05 )
( -0.003499783576 -0.002352627227 9.46821383e-05 )
( -0.003340194002 -0.002701892518 9.211715951e-05 )
( -0.003353020176 -0.002568014897 9.980080358e-05 )
( -0.003273161128 -0.002806584118 9.478904394e-05 )
( -0.003342701821 -0.002153191715 0.0001034414308 )
( -0.003200144973 -0.002869854914 9.250531002e-05 )
( -0.003493660595 -0.001257764176 5.179535583e-05 )
( -0.003519110614 -0.001170239411 5.031867477e-05 )
( -0.003208597191 -0.0009739943198 3.906602797e-05 )
( -0.003299901728 -0.0008796022157 3.895080954e-05 )
( -0.003744928865 -0.00088869303 4.720202196e-05 )
( -0.001223602565 -0.002337985905 0.0001436289313 )
( -0.001734503778 -0.002636016114 0.0001133215555 )
( -0.002542077564 -0.002929163631 0.000102168 )
( -0.002525820164 -0.002992167138 9.832947399e-05 )
( -0.002259677276 -0.002854850376 0.0001027504768 )
( -0.001951841172 -0.002702616155 0.000110303823 )
( -0.002192786196 -0.002855983796 9.885385225e-05 )
( -0.002726428909 -0.002999752294 9.770194447e-05 )
( -0.003025835147 -0.002996829804 9.933845286e-05 )
( -0.003115428146 -0.002921755426 9.859317652e-05 )
( -0.003198568244 -0.002870374359 9.876384865e-05 )
( -0.002971556969 -0.003034432884 0.0001025410602 )
( -0.002888242248 -0.003044103505 9.971000691e-05 )
( -0.00392064359 -0.0007275911048 4.834495485e-05 )
( -0.003820264945 -0.0008020056412 4.741267549e-05 )
( -0.003716839477 -0.0005522509455 4.082972009e-05 )
( -0.003858321114 -0.0004405850777 4.297568375e-05 )
( -0.003940854687 -0.0001247950859 4.055871614e-05 )
( -0.004032241646 -7.368649676e-05 4.006711606e-05 )
( -0.001987696392 1.214278291e-05 -7.488412848e-06 )
( -0.00359125901 3.412507795e-06 2.369534013e-05 )
( -0.002885996131 1.361003888e-05 1.147096191e-05 )
( -0.003566934727 -1.516307566e-05 2.804450196e-05 )
( -0.002860250417 1.791542854e-05 5.24116831e-06 )
( -0.002024410525 1.144565249e-05 -2.275291536e-06 )
( -0.001152898767 4.942233772e-06 -7.215547612e-06 )
( -0.001127004507 4.802819149e-06 -9.860774298e-06 )
( -0.003816990415 -0.0001859760232 3.914595072e-05 )
( -0.003646207275 -0.0002592348901 3.666150587e-05 )
( -0.003459624713 -0.001855781535 8.853122563e-05 )
( -0.003414998064 -0.001918359427 9.413019143e-05 )
( -0.003242201637 -0.001657011802 7.456385356e-05 )
( -0.00335242576 -0.002066615969 0.0001021385397 )
( -0.003398704343 -0.001997433836 9.603353101e-05 )
( -0.003270071 -0.001581095625 6.818563998e-05 )
( -0.003287735628 -0.001500164624 6.307662989e-05 )
( -0.00335796224 -0.001433321508 5.836566561e-05 )
( -0.003101038979 -0.001208407455 4.571659156e-05 )
( -0.003259677207 -0.00232704496 0.0001086085322 )
( -0.003233750118 -0.002376617398 0.0001080803268 )
( -0.003275857307 -0.002259825356 0.0001076374756 )
( -0.003289630404 -0.002210598905 0.0001063070595 )
( -0.003289513523 -0.002663984196 0.0001015904418 )
( -0.003296478419 -0.002619103529 0.0001029919367 )
( -0.003166527022 -0.002442479366 0.0001119624067 )
( -0.003270304995 -0.002786213532 0.0001017580798 )
( -0.003284774488 -0.002741365228 0.0001007649553 )
( -0.003051430918 -0.001983720344 9.74079303e-05 )
( -0.00314389728 -0.00112189108 4.263522715e-05 )
( -0.003169821575 -0.001043610275 4.006897507e-05 )
( -0.002764024073 -0.0008352596778 2.896412843e-05 )
( -0.002862593858 -0.0007472716388 3.074179767e-05 )
( -0.003407381009 -0.0007837604498 4.018819891e-05 )
( -0.001576962997 -0.002637776081 0.0001012758876 )
( -0.002072612755 -0.00283289561 9.413198131e-05 )
( -0.001981033012 -0.002867919393 8.27941476e-05 )
( -0.00179662439 -0.002746872371 9.526696522e-05 )
( -0.002657633508 -0.003039840143 9.795566439e-05 )
( -0.002642857376 -0.003126355819 9.164251969e-05 )
( -0.002458670409 -0.003045582911 8.867024735e-05 )
( -0.002342467429 -0.002999875695 8.368580893e-05 )
( -0.002804184565 -0.003097574692 9.928741201e-05 )
( -0.003086241661 -0.002962692641 0.0001058279449 )
( -0.003060058691 -0.003000182565 0.0001059132919 )
( -0.003157177707 -0.002883309498 0.0001040366478 )
( -0.003129675519 -0.002922592917 0.0001052314547 )
( -0.003204079345 -0.002859822474 0.0001047919068 )
( -0.003230482806 -0.002815902 0.0001034385423 )
( -0.00299638859 -0.003054005792 0.0001074453903 )
( -0.00302195875 -0.003026288003 0.0001083047246 )
( -0.002922513522 -0.003065519035 0.0001026941609 )
( -0.003604864702 -0.000635986391 3.999185719e-05 )
( -0.003494923702 -0.0007031840505 3.923472104e-05 )
( -0.003294027876 -0.0004616967344 3.165739327e-05 )
( -0.003446418094 -0.0003525354259 3.366577948e-05 )
( -0.00343453791 -8.119445556e-05 3.078033842e-05 )
( -0.003513497766 -4.296623956e-05 3.024892794e-05 )
( -0.001178587438 4.827690645e-06 -4.437339612e-06 )
( -0.002897554077 6.592173122e-06 1.636881825e-05 )
( -0.002083052881 8.485021681e-06 7.244643712e-06 )
( -0.002887710463 -4.123989584e-06 1.970001722e-05 )
( -0.002056877129 1.021292974e-05 2.786481446e-06 )
( -0.001203207416 4.653219094e-06 -1.50810672e-06 )
( -0.0005595752154 1.684177278e-06 -3.437932719e-06 )
( -0.0005463457201 1.646472128e-06 -4.643957709e-06 )
( -0.003320545889 -0.0001268972119 2.968204535e-05 )
( -0.003146336414 -0.0001846662926 2.722736645e-05 )
( -0.0031888464 -0.001711358549 7.97860921e-05 )
( -0.003149861936 -0.001770523377 8.33637605e-05 )
( -0.00291075604 -0.00148808409 6.327476149e-05 )
( -0.003080988303 -0.001909404993 9.228608542e-05 )
( -0.003112063278 -0.001835848205 8.721372433e-05 )
( -0.002917983802 -0.001413417049 5.779891944e-05 )
( -0.002926391549 -0.001335090958 5.294183575e-05 )
( -0.003001962556 -0.001274392009 4.93734151e-05 )
( -0.00268482673 -0.001035787631 3.547300366e-05 )
( -0.002997792326 -0.002154027345 0.0001039969793 )
( -0.002975372365 -0.002215327462 0.0001054257664 )
( -0.003011388006 -0.002093410818 0.0001026032114 )
( -0.003022340359 -0.002035885118 0.0001008290637 )
( -0.003130096244 -0.002546964679 0.0001103572577 )
( -0.00312325405 -0.00248649437 0.0001107692078 )
( -0.00292462972 -0.00226428546 0.0001063482196 )
( -0.003156676888 -0.002691942733 0.0001076667468 )
( -0.00315116276 -0.002637302736 0.0001089746293 )
( -0.002722250298 -0.001780267223 8.490691835e-05 )
( -0.002730167238 -0.0009648738196 3.239613579e-05 )
( -0.002747540595 -0.0008981689462 3.011554509e-05 )
( -0.002252402948 -0.0006797006354 2.014956954e-05 )
( -0.00234530773 -0.0005967929028 1.749260264e-05 )
( -0.002986986423 -0.000662824139 2.808181489e-05 )
( -0.00168704032 -0.002753630513 7.695099339e-05 )
( -0.001862309175 -0.002861001296 6.758347445e-05 )
( -0.001930113183 -0.002864321228 7.98514593e-05 )
( -0.002226870041 -0.003012643661 6.892257079e-05 )
( -0.002162661869 -0.003023506375 6.666367699e-05 )
( -0.002742649987 -0.003143855836 9.59332101e-05 )
( -0.002695674775 -0.003145189956 8.682478801e-05 )
( -0.002567418618 -0.003128127195 8.06418393e-05 )
( -0.002442560392 -0.003107473254 6.956799189e-05 )
( -0.002844625153 -0.003136448096 0.0001001432393 )
( -0.002996295691 -0.002907491289 0.0001139384331 )
( -0.002970306901 -0.002937742043 0.0001136407373 )
( -0.003061322495 -0.002832409926 0.0001124038972 )
( -0.003029110841 -0.002860491397 0.0001131333629 )
( -0.00309887738 -0.002777076326 0.000109909146 )
( -0.003128921613 -0.002743897494 0.0001089913276 )
( -0.002910556272 -0.003000717144 0.0001108119468 )
( -0.002952677198 -0.003066011472 0.0001067889389 )
( -0.002938353224 -0.00298285461 0.0001127099022 )
( -0.002927115886 -0.003094198648 0.0001054644672 )
( -0.00319610443 -0.0005378882051 3.075022687e-05 )
( -0.003095672932 -0.0005969480844 3.136799569e-05 )
( -0.002771054627 -0.0003678518406 2.307008981e-05 )
( -0.002927059541 -0.0002646759094 2.490956467e-05 )
( -0.002792182844 -4.781454845e-05 2.198950278e-05 )
( -0.002850932069 -2.179353396e-05 2.165363185e-05 )
( -0.0005729778204 1.639248126e-06 -2.092170917e-06 )
( -0.002099903068 5.36791913e-06 1.046365105e-05 )
( -0.001245390624 3.731744982e-06 3.763515224e-06 )
( -0.002100701444 1.667458918e-07 1.290339242e-05 )
( -0.001225873595 4.258190984e-06 1.365416438e-06 )
( -0.0005860200617 1.555267545e-06 -7.117694736e-07 )
( -0.002701519057 -7.803276822e-05 2.096400385e-05 )
( -0.002542247064 -0.000118608179 1.920994328e-05 )
( -0.002858366352 -0.001532234019 6.847039913e-05 )
( -0.00281848642 -0.001582372002 7.170552999e-05 )
( -0.002512765583 -0.001285654726 4.984163752e-05 )
( -0.00273778988 -0.001705646981 8.014262858e-05 )
( -0.002775236731 -0.00163842889 7.556451601e-05 )
( -0.002501705661 -0.00121566793 4.45577607e-05 )
( -0.002497207373 -0.001140529756 4.050798816e-05 )
( -0.002576824278 -0.001086700824 3.810665658e-05 )
( -0.002215861576 -0.0008434073534 2.487257552e-05 )
( -0.002693383489 -0.0019382342 9.39010788e-05 )
( -0.002670363523 -0.001992065692 9.60570469e-05 )
( -0.002700056182 -0.001880808268 9.101374599e-05 )
( -0.00270496821 -0.001827989239 8.833093307e-05 )
( -0.002853509272 -0.002348491922 0.0001089772559 )
( -0.002869304735 -0.002296506893 0.0001077739798 )
( -0.002622129396 -0.002036013175 9.781289555e-05 )
( -0.00286398665 -0.002471298911 0.0001104150069 )
( -0.002870366443 -0.002420167439 0.000108788292 )
( -0.002329342999 -0.001534535084 6.87265856e-05 )
( -0.002259937348 -0.0007902797079 2.272638631e-05 )
( -0.002262923168 -0.0007369574741 2.101655991e-05 )
( -0.001705086324 -0.0005153411184 1.347325542e-05 )
( -0.001793773845 -0.0004419361649 1.640758637e-05 )
( -0.002491898602 -0.0005297882017 2.046360714e-05 )
( -0.001889906125 -0.002900635591 4.987780994e-05 )
( -0.002154646674 -0.003047159174 5.712115671e-05 )
( -0.002103263047 -0.003059614915 4.03888298e-05 )
( -0.002306452487 -0.00306341867 6.466172636e-05 )
( -0.002254582243 -0.003061613534 5.913635687e-05 )
( -0.00276769232 -0.003138556611 9.52200935e-05 )
( -0.002733084839 -0.003130689031 8.983486623e-05 )
( -0.002712647896 -0.003145010909 8.523889119e-05 )
( -0.002583461115 -0.003178986022 7.099000504e-05 )
( -0.002482265932 -0.003136224579 6.516122812e-05 )
( -0.002880743239 -0.003125173971 0.0001024556841 )
( -0.002832076512 -0.003133337712 0.0001014034278 )
( -0.002732635243 -0.002679370809 0.0001189983668 )
( -0.002724768361 -0.002728168387 0.000118844262 )
( -0.002788388636 -0.002596950857 0.000116903022 )
( -0.002763302065 -0.002638272708 0.0001187846865 )
( -0.002823695308 -0.002559903311 0.0001144864509 )
( -0.002842246089 -0.002514024498 0.0001119243971 )
( -0.002695316682 -0.002797663212 0.0001153516932 )
( -0.002878963947 -0.003028478706 0.0001093374012 )
( -0.002705021761 -0.002763839904 0.0001173127457 )
( -0.002847765107 -0.003044199431 0.0001078744899 )
( -0.002697138814 -0.0004349890223 2.221617433e-05 )
( -0.002607051516 -0.0004795569694 1.81905416e-05 )
( -0.002170796273 -0.0002744249359 1.59228839e-05 )
( -0.002320765983 -0.0001820071484 1.725496077e-05 )
( -0.002043455373 -2.563433554e-05 1.433518628e-05 )
( -0.002079656115 -9.707974641e-06 1.419034106e-05 )
( -0.001260123565 2.640837465e-06 5.717556178e-06 )
( -0.0006094500422 1.166999368e-06 1.748201385e-06 )
( -0.001265113708 6.838531021e-07 6.971359653e-06 )
( -0.0005983651499 1.391601472e-06 5.996032542e-07 )
( -0.001984396717 -4.237117537e-05 1.357291512e-05 )
( -0.001859955257 -6.597387255e-05 1.231231727e-05 )
( -0.002473286353 -0.001323303208 5.38593049e-05 )
( -0.002431831555 -0.001361430157 5.74985097e-05 )
( -0.00206265063 -0.001056862529 3.587078754e-05 )
( -0.002335332567 -0.00146181637 6.4535212e-05 )
( -0.002380885649 -0.001405206509 6.11587966e-05 )
( -0.002033096272 -0.0009930360829 3.157787069e-05 )
( -0.002017665189 -0.0009228791459 2.837054126e-05 )
( -0.002101223916 -0.0008776562754 2.659878373e-05 )
( -0.001714880695 -0.0006416994147 1.631889063e-05 )
( -0.002333690412 -0.00167997065 8.003192488e-05 )
( -0.002308289986 -0.001722524757 8.290574624e-05 )
( -0.002335412195 -0.001629568869 7.645463484e-05 )
( -0.002330366289 -0.001581413788 7.263816224e-05 )
( -0.002551106736 -0.002111607231 9.966559446e-05 )
( -0.002562954323 -0.002061314415 9.831372154e-05 )
( -0.002257513348 -0.001756856684 8.45638715e-05 )
( -0.002560417866 -0.002219913062 0.000104796607 )
( -0.002561431611 -0.002170634456 0.0001024197045 )
( -0.001885736594 -0.001252703834 5.184546535e-05 )
( -0.001752012409 -0.0006068017101 1.49266707e-05 )
( -0.001737815328 -0.0005668085068 1.389763474e-05 )
( -0.001162344706 -0.0003522121697 8.524066288e-06 )
( -0.001248875167 -0.0002945658634 8.912025805e-06 )
( -0.001949694008 -0.0003938995069 1.425439859e-05 )
( -0.002067770809 -0.003010286018 2.563021371e-05 )
( -0.002265825635 -0.00310217496 4.026713941e-05 )
( -0.002200000687 -0.003067729762 2.464003228e-05 )
( -0.002373897471 -0.003104694886 5.808472633e-05 )
( -0.002391124377 -0.003142783884 4.574040213e-05 )
( -0.002704902319 -0.003081516363 0.0001041809592 )
( -0.002680948237 -0.003097216599 9.822376887e-05 )
( -0.002658348996 -0.003113903571 9.285282431e-05 )
( -0.002662979998 -0.003176788101 7.632028428e-05 )
( -0.002633334603 -0.003190289019 7.075064786e-05 )