/*--------------------------------*- C++ -*----------------------------------*\
  =========                 |
  \\      /  F ield         | OpenFOAM: The Open Source CFD Toolbox
   \\    /   O peration     | Website:  https://openfoam.org
    \\  /    A nd           | Version:  8
     \\/     M anipulation  |
\*---------------------------------------------------------------------------*/






FoamFile
{
    version     2.0;
    format      ascii;
    class       volSymmTensorField;
    location    "0";
    object      TauDDES;
}
// * * * * * * * * * * * * * * * * * * * * * * * * * * * * * * * * * * * * * //

dimensions      [0 2 -2 0 0 0 0];


internalField   nonuniform List<symmTensor>
20307
(
( 2.498162576e-05 -2.915879577e-06 4.146525612e-07 7.437332442e-06 6.907168171e-08 2.489187864e-05 )
( 2.496916568e-05 -3.592817393e-06 4.274890841e-07 9.288788533e-06 1.792994766e-07 2.503504948e-05 )
( 2.505418706e-05 -2.951014267e-06 3.858019113e-07 7.538164027e-06 8.779916527e-08 2.490529005e-05 )
( 2.511170169e-05 -3.664706128e-06 4.013437263e-07 9.482520909e-06 2.072003156e-07 2.506282181e-05 )
( 2.515367487e-05 -4.903587978e-06 4.206308972e-07 1.242169765e-05 3.618927735e-07 2.514900189e-05 )
( 2.513758591e-05 -2.988846973e-06 3.626994385e-07 7.60122748e-06 1.049828739e-07 2.492514614e-05 )
( 2.525006676e-05 -2.358500524e-06 3.2550642e-07 5.776488251e-06 1.643139491e-08 2.474408575e-05 )
( 2.519671398e-05 -3.021429393e-06 3.41446281e-07 7.692782674e-06 1.234607794e-07 2.495072113e-05 )
( 2.524709089e-05 -3.759209676e-06 3.811512954e-07 9.75036528e-06 2.37120247e-07 2.511448474e-05 )
( 2.528578443e-05 -4.955942586e-06 4.289710773e-07 1.260667159e-05 3.67475991e-07 2.516061249e-05 )
( 2.567025876e-05 -5.89942556e-06 3.796301087e-07 1.447521481e-05 4.440877319e-07 2.511908679e-05 )
( 2.533792212e-05 -2.404707629e-06 2.859667632e-07 5.861173577e-06 3.889433131e-08 2.477586349e-05 )
( 2.528028926e-05 -2.00629961e-06 2.557634105e-07 4.678968253e-06 3.038553853e-10 2.441811375e-05 )
( 2.52463542e-05 -1.992104444e-06 2.661402618e-07 4.658536e-06 -4.761641748e-09 2.440256867e-05 )
( 2.52649188e-05 -3.080112037e-06 3.233296582e-07 7.823550732e-06 1.442139563e-07 2.500032861e-05 )
( 2.540378773e-05 -2.42588635e-06 2.619543693e-07 5.92012475e-06 5.183003893e-08 2.48141896e-05 )
( 2.541954382e-05 -3.843321792e-06 3.632480627e-07 9.992355444e-06 2.610968863e-07 2.515788947e-05 )
( 2.546567339e-05 -5.041982149e-06 4.526964972e-07 1.291943499e-05 3.675985738e-07 2.519425107e-05 )
( 2.532009967e-05 -3.107500106e-06 3.114269305e-07 7.917284165e-06 1.624042909e-07 2.50418052e-05 )
( 2.600333028e-05 -6.027209565e-06 4.4844424e-07 1.494305252e-05 4.192275185e-07 2.51728743e-05 )
( 2.534213854e-05 -2.036559408e-06 2.34202119e-07 4.696959877e-06 9.273056989e-09 2.445052451e-05 )
( 2.537600085e-05 -2.048061106e-06 2.191870436e-07 4.721238383e-06 1.521952697e-08 2.446829058e-05 )
( 2.504215809e-05 -1.668166192e-06 1.696407139e-07 3.530083859e-06 -6.177633516e-09 2.371080336e-05 )
( 2.500536903e-05 -1.653063009e-06 1.79174009e-07 3.501285846e-06 -1.143559381e-08 2.368618152e-05 )
( 2.547764052e-05 -2.47251478e-06 2.368067982e-07 6.008616765e-06 7.560252158e-08 2.486959784e-05 )
( 2.544663948e-05 -2.066919251e-06 1.928026165e-07 4.802670901e-06 3.139126648e-08 2.45187257e-05 )
( 2.541771391e-05 -2.055375717e-06 2.031261772e-07 4.778114544e-06 2.512154396e-08 2.449783642e-05 )
( 2.54727529e-05 -3.145819846e-06 2.848100564e-07 8.047724805e-06 1.948824462e-07 2.511895218e-05 )
( 2.558937194e-05 -3.932627351e-06 3.767700605e-07 1.023857294e-05 2.716839447e-07 2.51894453e-05 )
( 2.561632573e-05 -5.09602387e-06 4.64315292e-07 1.31098368e-05 3.684841943e-07 2.520266935e-05 )
( 2.540956302e-05 -3.131529184e-06 2.931851952e-07 7.96994118e-06 1.803249887e-07 2.508075886e-05 )
( 2.553142804e-05 -2.492201475e-06 2.225201854e-07 6.069065421e-06 9.175408167e-08 2.492361455e-05 )
( 2.630725794e-05 -6.166083494e-06 5.164286563e-07 1.536740456e-05 3.49216549e-07 2.528214463e-05 )
( 2.511005368e-05 -1.691492002e-06 1.518003501e-07 3.545065965e-06 5.669896774e-10 2.374345422e-05 )
( 2.514310654e-05 -1.704827127e-06 1.40015942e-07 3.575273695e-06 6.892844517e-09 2.37718541e-05 )
( 2.449915701e-05 -1.35607479e-06 9.992664474e-08 2.585512448e-06 -9.942715096e-09 2.280494482e-05 )
( 2.444587153e-05 -1.346890826e-06 1.051449914e-07 2.575025519e-06 -1.22158097e-08 2.277437306e-05 )
( 2.549478268e-05 -2.097786364e-06 1.796313427e-07 4.823309155e-06 4.211277371e-08 2.456129187e-05 )
( 2.551703801e-05 -2.108463832e-06 1.72978261e-07 4.847557193e-06 4.78795954e-08 2.458787094e-05 )
( 2.522697105e-05 -1.72351929e-06 1.191550751e-07 3.628837476e-06 1.935202043e-08 2.384557411e-05 )
( 2.519967529e-05 -1.709710205e-06 1.273998151e-07 3.596145689e-06 1.303953301e-08 2.380717524e-05 )
( 2.556794061e-05 -3.200489346e-06 2.898788978e-07 8.164823157e-06 2.074253302e-07 2.515508095e-05 )
( 2.567609044e-05 -2.526598564e-06 2.029556896e-07 6.183070127e-06 1.25162785e-07 2.505817611e-05 )
( 2.570564538e-05 -3.981901955e-06 4.152794304e-07 1.040328243e-05 2.677209068e-07 2.523231888e-05 )
( 2.581075751e-05 -5.185552254e-06 4.975390766e-07 1.338200855e-05 3.457818707e-07 2.524171941e-05 )
( 2.560627763e-05 -3.226810577e-06 3.113061666e-07 8.278552741e-06 2.146590532e-07 2.519479494e-05 )
( 2.560945177e-05 -2.524425327e-06 2.136012398e-07 6.147513432e-06 1.093631212e-07 2.500006303e-05 )
( 2.557399785e-05 -2.12159307e-06 1.61505028e-07 4.923431334e-06 6.256821194e-08 2.466732985e-05 )
( 2.555001265e-05 -2.11221095e-06 1.650049626e-07 4.901521606e-06 5.641491541e-08 2.463495366e-05 )
( 2.65533381e-05 -6.290586498e-06 5.596021424e-07 1.569657616e-05 2.239434025e-07 2.541961294e-05 )
( 2.590244731e-05 -5.214760677e-06 5.202252851e-07 1.35058026e-05 3.190088478e-07 2.52809732e-05 )
( 2.455677532e-05 -1.378127308e-06 8.747443303e-08 2.611261607e-06 -3.922520087e-09 2.28419176e-05 )
( 2.460633368e-05 -1.38499604e-06 8.015678787e-08 2.619651241e-06 -4.29342506e-10 2.28692461e-05 )
( 2.344831773e-05 -1.084443852e-06 6.028030697e-08 1.851884008e-06 -9.250600286e-09 2.160626173e-05 )
( 2.339587081e-05 -1.069958557e-06 6.614953918e-08 1.83176769e-06 -1.196592958e-08 2.157449489e-05 )
( 2.527771176e-05 -1.74225579e-06 1.095736977e-07 3.638846238e-06 2.564340029e-08 2.389057772e-05 )
( 2.530025449e-05 -1.753255901e-06 1.043659381e-07 3.670884098e-06 3.014193339e-08 2.393648538e-05 )
( 2.470480285e-05 -1.404712521e-06 6.218219539e-08 2.654098353e-06 1.060431654e-08 2.294462683e-05 )
( 2.465677608e-05 -1.398821496e-06 6.892911131e-08 2.646347184e-06 6.550104459e-09 2.291030796e-05 )
( 2.574632163e-05 -2.562552709e-06 2.178120724e-07 6.277841749e-06 1.390199316e-07 2.513467552e-05 )
( 2.571600635e-05 -2.154413778e-06 1.581842781e-07 5.030975444e-06 8.908406102e-08 2.483416574e-05 )
( 2.568945274e-05 -2.148028898e-06 1.565215229e-07 5.012537258e-06 8.353589465e-08 2.480033072e-05 )
( 2.571569166e-05 -3.272293498e-06 3.531075095e-07 8.433496987e-06 2.204866973e-07 2.527202741e-05 )
( 2.576918632e-05 -3.972314516e-06 4.65326309e-07 1.045499721e-05 2.466382227e-07 2.530454731e-05 )
( 2.566954572e-05 -3.25352994e-06 3.304070617e-07 8.345630704e-06 2.181024286e-07 2.523407966e-05 )
( 2.579468855e-05 -2.568338914e-06 2.41104658e-07 6.326543371e-06 1.485409342e-07 2.520883572e-05 )
( 2.562374357e-05 -2.146014594e-06 1.591811127e-07 4.940102826e-06 7.132955204e-08 2.472170127e-05 )
( 2.565600698e-05 -2.153458126e-06 1.570678876e-07 4.962571438e-06 7.521906298e-08 2.475211295e-05 )
( 2.536702777e-05 -1.763048886e-06 9.932688272e-08 3.715332241e-06 4.058922087e-08 2.403594408e-05 )
( 2.53452472e-05 -1.755526e-06 1.000745726e-07 3.688748166e-06 3.489888201e-08 2.3988463e-05 )
( 2.605233749e-05 -5.269006124e-06 5.71925284e-07 1.37221441e-05 2.171581741e-07 2.541173671e-05 )
( 2.598003266e-05 -5.239844995e-06 5.523368714e-07 1.362351941e-05 2.581681997e-07 2.535413114e-05 )
( 2.68442418e-05 -6.472686437e-06 5.817094006e-07 1.609616265e-05 9.683920155e-08 2.556271284e-05 )
( 2.352067895e-05 -1.098214739e-06 5.336492848e-08 1.858615406e-06 -7.268642133e-09 2.164417674e-05 )
( 2.356711593e-05 -1.111991537e-06 4.48826043e-08 1.880405534e-06 -3.300499429e-09 2.167687308e-05 )
( 2.166333434e-05 -8.479387361e-07 5.705445005e-08 1.252615903e-06 -8.286806796e-09 1.994893682e-05 )
( 2.158805546e-05 -8.367359783e-07 6.27620409e-08 1.242529834e-06 -8.825116637e-09 1.991696081e-05 )
( 2.474776556e-05 -1.421662432e-06 5.423717653e-08 2.679664249e-06 1.585684473e-08 2.300296546e-05 )
( 2.478768147e-05 -1.42460749e-06 5.259072111e-08 2.685536856e-06 1.713514841e-08 2.304782538e-05 )
( 2.368243804e-05 -1.131957788e-06 2.882763717e-08 1.908217428e-06 4.321888625e-09 2.175667032e-05 )
( 2.36375945e-05 -1.12035184e-06 3.659431869e-08 1.884304766e-06 2.365588836e-10 2.171374581e-05 )
( 2.576861152e-05 -2.176550652e-06 1.633260922e-07 5.042709745e-06 9.502715415e-08 2.489755934e-05 )
( 2.579246939e-05 -2.180950787e-06 1.717976374e-07 5.060351214e-06 9.928179878e-08 2.493618376e-05 )
( 2.552003025e-05 -1.794219997e-06 1.130392207e-07 3.799009392e-06 5.788882618e-08 2.424374725e-05 )
( 2.549695273e-05 -1.788972781e-06 1.080092744e-07 3.771591764e-06 5.38909255e-08 2.419097837e-05 )
( 2.57609754e-05 -3.283897513e-06 3.900400998e-07 8.477223673e-06 2.172424303e-07 2.532515282e-05 )
( 2.591643897e-05 -2.605735517e-06 2.920545512e-07 6.45676937e-06 1.607229905e-07 2.535081876e-05 )
( 2.585179209e-05 -3.994082363e-06 5.341372571e-07 1.05577692e-05 2.184980303e-07 2.53800572e-05 )
( 2.581146691e-05 -3.296257319e-06 4.240858686e-07 8.564092241e-06 2.132945838e-07 2.536935426e-05 )
( 2.586744449e-05 -2.597360435e-06 2.625965294e-07 6.407154615e-06 1.563745116e-07 2.528007099e-05 )
( 2.584284812e-05 -2.176581802e-06 2.052510695e-07 5.126904398e-06 1.086065851e-07 2.502887764e-05 )
( 2.581901754e-05 -2.173378562e-06 1.918835721e-07 5.107171091e-06 1.04429418e-07 2.499337279e-05 )
( 2.542382208e-05 -1.781880428e-06 1.023036305e-07 3.726290288e-06 4.561737299e-08 2.408986256e-05 )
( 2.545182724e-05 -1.790479928e-06 1.056713046e-07 3.757768809e-06 4.89790466e-08 2.413679067e-05 )
( 2.486819176e-05 -1.433186526e-06 5.464127995e-08 2.71179124e-06 2.195648996e-08 2.316008795e-05 )
( 2.482680611e-05 -1.43150362e-06 5.180762841e-08 2.708020702e-06 2.029291579e-08 2.311149183e-05 )
( 2.618434519e-05 -5.384418728e-06 6.019006946e-07 1.398371933e-05 1.55374849e-07 2.549734745e-05 )
( 2.71520039e-05 -6.604636383e-06 5.723886147e-07 1.639317998e-05 -4.90850649e-09 2.573791608e-05 )
( 2.626768764e-05 -5.441886515e-06 6.296433526e-07 1.410705408e-05 1.119531277e-07 2.558225242e-05 )
( 2.173749635e-05 -8.628711612e-07 5.020504901e-08 1.260425165e-06 -7.320688944e-09 1.998195876e-05 )
( 2.180644151e-05 -8.732145034e-07 4.239096185e-08 1.272008717e-06 -5.53067725e-09 2.001558096e-05 )
( 1.903363591e-05 -6.380744253e-07 7.58184342e-08 7.846639392e-07 -7.440354999e-09 1.781337414e-05 )
( 1.894445813e-05 -6.274658517e-07 8.172572308e-08 7.792783663e-07 -6.814264708e-09 1.778622391e-05 )
( 2.37444292e-05 -1.137831418e-06 2.469124105e-08 1.907475735e-06 6.269282871e-09 2.180742013e-05 )
( 2.378084173e-05 -1.145496981e-06 2.326381221e-08 1.929626023e-06 7.945676117e-09 2.186191523e-05 )
( 2.194068838e-05 -8.91092327e-07 2.824100775e-08 1.289824468e-06 -1.354758083e-09 2.009416676e-05 )
( 2.187563587e-05 -8.850216204e-07 3.44227935e-08 1.280187234e-06 -3.059421161e-09 2.005254464e-05 )
( 2.557504558e-05 -1.806777391e-06 1.18447339e-07 3.806971108e-06 6.062565205e-08 2.430747736e-05 )
( 2.559686618e-05 -1.8076895e-06 1.262421563e-07 3.825337444e-06 6.455934454e-08 2.435899296e-05 )
( 2.503798351e-05 -1.461763418e-06 8.226995618e-08 2.779881925e-06 3.113392566e-08 2.340116589e-05 )
( 2.499451512e-05 -1.459213877e-06 7.580020878e-08 2.770767423e-06 3.006835669e-08 2.334720739e-05 )
( 2.597925959e-05 -2.632650649e-06 3.320762687e-07 6.527222467e-06 1.629345832e-07 2.542993752e-05 )
( 2.598400715e-05 -2.202503993e-06 2.657529024e-07 5.225044788e-06 1.192043442e-07 2.522311843e-05 )
( 2.596415106e-05 -2.200229801e-06 2.489870212e-07 5.207688901e-06 1.176516093e-07 2.518645488e-05 )
( 2.5906058e-05 -3.317721166e-06 5.152646736e-07 8.681618056e-06 1.91772159e-07 2.546620271e-05 )
( 2.587040944e-05 -3.303390713e-06 4.692775804e-07 8.593422535e-06 2.042358176e-07 2.542035872e-05 )
( 2.593593672e-05 -4.067469945e-06 5.960466751e-07 1.077066372e-05 1.827008447e-07 2.546890209e-05 )
( 2.602770837e-05 -2.636022145e-06 3.676007339e-07 6.578904049e-06 1.640964911e-07 2.549176497e-05 )
( 2.590004806e-05 -2.20081597e-06 2.173787124e-07 5.142828286e-06 1.137057666e-07 2.509044316e-05 )
( 2.591617886e-05 -2.199698429e-06 2.291883447e-07 5.148014679e-06 1.147659532e-07 2.511551975e-05 )
( 2.567223783e-05 -1.811954803e-06 1.571578139e-07 3.868798103e-06 7.342768527e-08 2.447815677e-05 )
( 2.564330134e-05 -1.806196451e-06 1.422024667e-07 3.841379112e-06 6.885765202e-08 2.442226651e-05 )
( 2.491231317e-05 -1.44847445e-06 6.141321052e-08 2.736921033e-06 2.687602674e-08 2.322550063e-05 )
( 2.495734589e-05 -1.453601953e-06 6.782777007e-08 2.747048484e-06 2.755827921e-08 2.327647599e-05 )
( 2.387762652e-05 -1.153154358e-06 3.173334306e-08 1.947448709e-06 1.046876541e-08 2.197508365e-05 )
( 2.384030086e-05 -1.147752869e-06 2.643057151e-08 1.929539621e-06 8.060085044e-09 2.191914791e-05 )
( 2.742496508e-05 -6.762868452e-06 5.152572271e-07 1.682296352e-05 -6.672947706e-08 2.588370808e-05 )
( 2.650243005e-05 -5.500360203e-06 6.230965823e-07 1.426216386e-05 2.319184311e-08 2.583322748e-05 )
( 2.64186383e-05 -5.494852758e-06 6.341155085e-07 1.421378602e-05 5.848840701e-08 2.572334051e-05 )
( 2.602000859e-05 -4.141037152e-06 6.548257261e-07 1.097383847e-05 1.41293313e-07 2.558591223e-05 )
( 1.912012522e-05 -6.500024483e-07 6.935717067e-08 7.899137131e-07 -7.825882165e-09 1.784245069e-05 )
( 1.920207251e-05 -6.594934803e-07 6.208230729e-08 7.960674111e-07 -6.986299983e-09 1.787318797e-05 )
( 1.577202238e-05 -4.554498219e-07 9.561697567e-08 4.538655389e-07 -6.559010668e-09 1.529987821e-05 )
( 1.567632717e-05 -4.467206054e-07 1.001808556e-07 4.511610427e-07 -5.225134547e-09 1.527722452e-05 )
( 2.200188646e-05 -8.987269098e-07 2.353969109e-08 1.294823392e-06 1.426814777e-10 2.014494021e-05 )
( 2.206173303e-05 -9.018561968e-07 2.393507614e-08 1.303313752e-06 9.175328275e-10 2.019542808e-05 )
( 1.935585169e-05 -6.739874152e-07 4.95268182e-08 8.058275398e-07 -5.205798459e-09 1.794685886e-05 )
( 1.928106394e-05 -6.683920901e-07 5.550456095e-08 8.012795547e-07 -6.028192168e-09 1.790757415e-05 )
( 2.508085163e-05 -1.470511393e-06 9.128200418e-08 2.798593641e-06 3.399705051e-08 2.347270129e-05 )
( 2.511826096e-05 -1.469110089e-06 9.97916203e-08 2.799311687e-06 3.749392974e-08 2.352371303e-05 )
( 2.407287866e-05 -1.175550892e-06 6.471709924e-08 1.991781346e-06 1.748711931e-08 2.221600516e-05 )
( 2.403407234e-05 -1.169399638e-06 5.621302535e-08 1.970986887e-06 1.548298734e-08 2.215542736e-05 )
( 2.602687528e-05 -2.22307176e-06 2.902928316e-07 5.235242497e-06 1.215059768e-07 2.528655568e-05 )
( 2.604870315e-05 -2.22790527e-06 3.056932201e-07 5.253802101e-06 1.228725637e-07 2.532051803e-05 )
( 2.583726746e-05 -1.827503297e-06 2.195692446e-07 3.933232165e-06 8.140381169e-08 2.47264943e-05 )
( 2.579556531e-05 -1.820313742e-06 2.05470684e-07 3.898600426e-06 7.929940438e-08 2.465670332e-05 )
( 2.613013748e-05 -2.666925411e-06 4.709878567e-07 6.707309694e-06 1.519969857e-07 2.560913708e-05 )
( 2.595547085e-05 -3.364038093e-06 5.603909585e-07 8.793919733e-06 1.788266104e-07 2.55242503e-05 )
( 2.609410512e-05 -2.663567102e-06 4.183675628e-07 6.650617252e-06 1.588739451e-07 2.556026448e-05 )
( 2.599353502e-05 -3.387239303e-06 5.957049325e-07 8.897774023e-06 1.706869881e-07 2.558472625e-05 )
( 2.610673255e-05 -2.227753839e-06 3.416686525e-07 5.314710052e-06 1.234206763e-07 2.540123023e-05 )
( 2.608126124e-05 -2.22148401e-06 3.290141137e-07 5.29867657e-06 1.228739279e-07 2.53690705e-05 )
( 2.571286313e-05 -1.818334567e-06 1.741717028e-07 3.857162028e-06 7.577310157e-08 2.453082197e-05 )
( 2.573728852e-05 -1.820288162e-06 1.863387382e-07 3.873292371e-06 7.806399083e-08 2.458579547e-05 )
( 2.520973794e-05 -1.477465275e-06 1.249609625e-07 2.826443506e-06 4.38092016e-08 2.365485489e-05 )
( 2.516354652e-05 -1.474508508e-06 1.133860579e-07 2.819235988e-06 4.11041654e-08 2.359672726e-05 )
( 2.394006151e-05 -1.160249781e-06 3.980749597e-08 1.950529622e-06 1.189657262e-08 2.203554868e-05 )
( 2.397798198e-05 -1.168443305e-06 4.746017623e-08 1.972473456e-06 1.506516512e-08 2.209201557e-05 )
( 2.217926522e-05 -9.094441111e-07 3.312259622e-08 1.317908527e-06 2.270056587e-09 2.03071686e-05 )
( 2.212163599e-05 -9.073262959e-07 2.673005994e-08 1.309240929e-06 1.638344238e-09 2.02503561e-05 )
( 2.772063817e-05 -6.980333637e-06 4.856979103e-07 1.735690421e-05 -1.00890702e-07 2.603581743e-05 )
( 2.674445932e-05 -5.691171737e-06 5.364984759e-07 1.483104279e-05 -4.152136768e-08 2.598203537e-05 )
( 2.662589395e-05 -5.572907412e-06 5.813817552e-07 1.44996211e-05 -1.517592629e-08 2.592767305e-05 )
( 2.621854946e-05 -4.231277217e-06 6.942767641e-07 1.123758011e-05 7.102310917e-08 2.589941141e-05 )
( 2.611580749e-05 -4.188537332e-06 6.925018852e-07 1.110292033e-05 1.064150226e-07 2.57395568e-05 )
( 2.608177601e-05 -3.445828725e-06 6.707650755e-07 9.06540663e-06 1.384842676e-07 2.573375241e-05 )
( 2.604112524e-05 -3.421914698e-06 6.396129493e-07 8.976743629e-06 1.52941567e-07 2.566095282e-05 )
( 1.58642797e-05 -4.64236706e-07 9.033539783e-08 4.56782459e-07 -7.216683695e-09 1.532413262e-05 )
( 1.595182584e-05 -4.713534736e-07 8.475672786e-08 4.599239674e-07 -6.907026062e-09 1.535106821e-05 )
( 1.217050703e-05 -2.991850465e-07 9.843834903e-08 2.399165737e-07 -5.408818726e-09 1.247471209e-05 )
( 1.208136109e-05 -2.932623602e-07 1.010683661e-07 2.386181848e-07 -4.136969878e-09 1.245610292e-05 )
( 1.942899689e-05 -6.794208502e-07 4.585456281e-08 8.091449786e-07 -5.017046334e-09 1.799127858e-05 )
( 1.949998659e-05 -6.826858225e-07 4.653208308e-08 8.133535516e-07 -4.893454086e-09 1.803796658e-05 )
( 1.611567859e-05 -4.821104085e-07 7.57994556e-08 4.645563081e-07 -6.494722093e-09 1.541489837e-05 )
( 1.603580677e-05 -4.778378297e-07 7.969602223e-08 4.624803012e-07 -6.259887275e-09 1.537990101e-05 )
( 2.413189941e-05 -1.180179879e-06 7.309120065e-08 1.994403192e-06 1.959000784e-08 2.228202902e-05 )
( 2.41661146e-05 -1.182767164e-06 8.241600824e-08 2.006376008e-06 2.202829741e-08 2.234082422e-05 )
( 2.241121547e-05 -9.273126693e-07 6.104191641e-08 1.344952352e-06 1.033251795e-08 2.052755735e-05 )
( 2.235565807e-05 -9.257220768e-07 5.396316993e-08 1.337091703e-06 8.196908929e-09 2.046981535e-05 )
( 2.588789721e-05 -1.838019671e-06 2.384630307e-07 3.935008408e-06 8.245631022e-08 2.478934039e-05 )
( 2.591281736e-05 -1.83973259e-06 2.553692866e-07 3.955970897e-06 8.328142087e-08 2.484336801e-05 )
( 2.539302113e-05 -1.488522344e-06 1.863589318e-07 2.872531695e-06 5.167350636e-08 2.394471448e-05 )
( 2.534865416e-05 -1.490036993e-06 1.727909336e-07 2.868983756e-06 5.163605366e-08 2.388198845e-05 )
( 2.621950625e-05 -2.263037459e-06 4.408511813e-07 5.425178188e-06 1.130445142e-07 2.553690683e-05 )
( 2.619902079e-05 -2.253609182e-06 4.197262342e-07 5.403126124e-06 1.163741814e-07 2.551337093e-05 )
( 2.618467806e-05 -2.7030203e-06 5.236883567e-07 6.799582025e-06 1.439313593e-07 2.568194395e-05 )
( 2.615612902e-05 -2.251882506e-06 3.666096973e-07 5.325136044e-06 1.233950115e-07 2.54545339e-05 )
( 2.617553218e-05 -2.257827873e-06 3.861781011e-07 5.34710307e-06 1.216511265e-07 2.547745316e-05 )
( 2.62223457e-05 -2.714614993e-06 5.716428859e-07 6.860048416e-06 1.414266819e-07 2.574238169e-05 )
( 2.598603533e-05 -1.84081739e-06 2.913754429e-07 3.991273388e-06 8.319603495e-08 2.495093213e-05 )
( 2.595966725e-05 -1.837362561e-06 2.762983229e-07 3.971684237e-06 8.303436516e-08 2.489980761e-05 )
( 2.525609125e-05 -1.486987685e-06 1.414040298e-07 2.841039759e-06 4.817140109e-08 2.373433563e-05 )
( 2.528494952e-05 -1.480732067e-06 1.548877151e-07 2.831289521e-06 4.879332138e-08 2.378546742e-05 )
( 2.426976971e-05 -1.19235176e-06 1.037972837e-07 2.028256404e-06 2.697385604e-08 2.247820157e-05 )
( 2.422664147e-05 -1.186483019e-06 9.271036561e-08 2.008812771e-06 2.327439041e-08 2.241014408e-05 )
( 2.224039599e-05 -9.167979442e-07 3.957195105e-08 1.323617198e-06 4.471661708e-09 2.036053593e-05 )
( 2.229704296e-05 -9.196719475e-07 4.674051723e-08 1.332007173e-06 6.624541804e-09 2.041489279e-05 )
( 1.963890645e-05 -6.891654039e-07 5.225820843e-08 8.224234307e-07 -3.109780433e-09 1.813591007e-05 )
( 1.957072163e-05 -6.867060165e-07 4.880287463e-08 8.176018582e-07 -4.433336809e-09 1.808602792e-05 )
( 2.690732617e-05 -5.830753253e-06 5.103218541e-07 1.519612579e-05 -6.781650086e-08 2.606955422e-05 )
( 2.806254997e-05 -7.194262707e-06 5.165283028e-07 1.782568143e-05 -1.268420249e-07 2.619615407e-05 )
( 2.703576683e-05 -5.915076144e-06 5.110716188e-07 1.540599442e-05 -8.46867465e-08 2.616017446e-05 )
( 2.643676999e-05 -4.334789082e-06 6.638855439e-07 1.161788441e-05 1.634417757e-08 2.617971404e-05 )
( 2.630980453e-05 -4.255328349e-06 6.922508078e-07 1.1365918e-05 4.25144826e-08 2.605033114e-05 )
( 2.626549576e-05 -3.548439508e-06 7.340535149e-07 9.395746019e-06 7.667419055e-08 2.608233081e-05 )
( 2.622654392e-05 -3.531289167e-06 7.274441032e-07 9.304443665e-06 9.255413147e-08 2.600005246e-05 )
( 2.614106234e-05 -3.483625278e-06 6.969124229e-07 9.14559223e-06 1.231063607e-07 2.582699381e-05 )
( 2.617328391e-05 -3.500906132e-06 7.169201695e-07 9.240807231e-06 1.085589076e-07 2.590260192e-05 )
( 2.632114956e-05 -2.762955546e-06 6.601478617e-07 7.003329301e-06 1.219994346e-07 2.591223529e-05 )
( 2.627572758e-05 -2.747519829e-06 6.24397444e-07 6.948790997e-06 1.29210008e-07 2.583264359e-05 )
( 1.225640608e-05 -3.050315911e-07 9.524099198e-08 2.413358118e-07 -5.887998089e-09 1.24951066e-05 )
( 1.233887451e-05 -3.099718526e-07 9.101857756e-08 2.428333232e-07 -5.223179667e-09 1.251558297e-05 )
( 8.61287208e-06 -1.738472406e-07 8.066434276e-08 1.131294098e-07 -3.889847111e-09 9.478013453e-06 )
( 8.541394891e-06 -1.702866683e-07 8.157983444e-08 1.126037432e-07 -3.093261647e-09 9.463004972e-06 )
( 1.61930875e-05 -4.861972229e-07 7.204027952e-08 4.662118442e-07 -6.180430834e-09 1.545184932e-05 )
( 1.626974699e-05 -4.890191576e-07 7.283635739e-08 4.683229236e-07 -6.513589224e-09 1.549052286e-05 )
( 1.249159413e-05 -3.171960259e-07 8.597472601e-08 2.448328473e-07 -5.180627483e-09 1.256888117e-05 )
( 1.241667906e-05 -3.140642946e-07 8.858096123e-08 2.439887226e-07 -5.102817724e-09 1.254176823e-05 )
( 2.246917211e-05 -9.338846212e-07 6.785122508e-08 1.349743229e-06 1.207998324e-08 2.058524842e-05 )
( 2.252471131e-05 -9.366522136e-07 7.613768105e-08 1.357694259e-06 1.347215584e-08 2.064424734e-05 )
( 1.99125534e-05 -7.041873005e-07 6.85689443e-08 8.397973374e-07 4.283113419e-09 1.833097849e-05 )
( 1.98444759e-05 -7.008218859e-07 6.429826271e-08 8.353849239e-07 2.89998825e-09 1.828264794e-05 )
( 2.543697701e-05 -1.492214551e-06 2.054552084e-07 2.881023647e-06 5.192931596e-08 2.402385689e-05 )
( 2.547783333e-05 -1.49055063e-06 2.18272362e-07 2.881296041e-06 5.209405884e-08 2.408563523e-05 )
( 2.446566396e-05 -1.200053362e-06 1.589822034e-07 2.053220896e-06 3.293111206e-08 2.278646571e-05 )
( 2.442636287e-05 -1.199056555e-06 1.442825948e-07 2.040560048e-06 3.273987659e-08 2.270958066e-05 )
( 2.612076969e-05 -1.873775659e-06 3.766520535e-07 4.070645446e-06 7.857464368e-08 2.512785068e-05 )
( 2.625790148e-05 -2.290340262e-06 4.717031743e-07 5.442037036e-06 1.132304774e-07 2.558245797e-05 )
( 2.609822695e-05 -1.865734021e-06 3.561787594e-07 4.041244665e-06 7.982048089e-08 2.508995931e-05 )
( 2.627626964e-05 -2.297240144e-06 4.931513331e-07 5.464585229e-06 1.125992526e-07 2.560792018e-05 )
( 2.603844587e-05 -1.860157681e-06 3.126201022e-07 4.002656169e-06 8.221960712e-08 2.500586015e-05 )
( 2.605980626e-05 -1.864864316e-06 3.309355066e-07 4.025654107e-06 8.213890368e-08 2.504882104e-05 )
( 2.631453208e-05 -2.30212504e-06 5.473175975e-07 5.543354291e-06 1.079200302e-07 2.567402407e-05 )
( 2.629629853e-05 -2.293456646e-06 5.264362812e-07 5.518612852e-06 1.109728771e-07 2.5646219e-05 )
( 2.557050902e-05 -1.49407299e-06 2.485754749e-07 2.907482212e-06 4.983494151e-08 2.421908357e-05 )
( 2.552416481e-05 -1.49141124e-06 2.36892916e-07 2.8986708e-06 5.076300624e-08 2.415967174e-05 )
( 2.432822293e-05 -1.195186428e-06 1.152891898e-07 2.023398793e-06 2.934275045e-08 2.255309482e-05 )
( 2.436442628e-05 -1.196545327e-06 1.285936264e-07 2.036857722e-06 3.258199399e-08 2.262696762e-05 )
( 2.26404336e-05 -9.452738254e-07 9.268628531e-08 1.368509061e-06 1.746244216e-08 2.077094905e-05 )
( 2.258402674e-05 -9.432667412e-07 8.435941368e-08 1.362137596e-06 1.475914502e-08 2.070572009e-05 )
( 1.97075733e-05 -6.933229884e-07 5.674694137e-08 8.265172369e-07 -1.368444247e-09 1.818615419e-05 )
( 1.977584361e-05 -6.966486126e-07 5.976010442e-08 8.314565889e-07 1.366760038e-09 1.823304228e-05 )
( 1.641605195e-05 -4.939070664e-07 7.367951582e-08 4.734908146e-07 -3.864910614e-09 1.557329597e-05 )
( 1.634387627e-05 -4.919216394e-07 7.323421869e-08 4.707484322e-07 -5.69449865e-09 1.553067159e-05 )
( 2.654780474e-05 -4.396174518e-06 6.517070688e-07 1.183475433e-05 -7.631570931e-09 2.631225288e-05 )
( 2.723004582e-05 -6.051084711e-06 5.24952668e-07 1.568765583e-05 -1.040440196e-07 2.627914728e-05 )
( 2.848029544e-05 -7.427344826e-06 5.721861953e-07 1.831004738e-05 -1.330486725e-07 2.633881923e-05 )
( 2.739355477e-05 -6.162672889e-06 5.464262927e-07 1.589907151e-05 -1.11852863e-07 2.636237514e-05 )
( 2.667768786e-05 -4.474695743e-06 6.443925713e-07 1.205163153e-05 -2.975113311e-08 2.645408858e-05 )
( 2.647320252e-05 -3.628051445e-06 7.063189855e-07 9.731787941e-06 2.976497626e-08 2.642651089e-05 )
( 2.643157677e-05 -3.618263008e-06 7.163291116e-07 9.642973055e-06 3.994196618e-08 2.63494203e-05 )
( 2.632451651e-05 -3.573352842e-06 7.363780696e-07 9.466516531e-06 6.062464308e-08 2.617931386e-05 )
( 2.636653153e-05 -3.586147386e-06 7.304455494e-07 9.55730502e-06 4.886936011e-08 2.625757224e-05 )
( 2.648812369e-05 -2.837219199e-06 7.531135111e-07 7.294265743e-06 7.650342582e-08 2.630791641e-05 )
( 2.645137647e-05 -2.828719516e-06 7.413420917e-07 7.231202289e-06 8.83409399e-08 2.621259409e-05 )
( 2.636833597e-05 -2.793957947e-06 6.961922168e-07 7.093159638e-06 1.11209097e-07 2.601421875e-05 )
( 2.640833191e-05 -2.798930836e-06 7.241033586e-07 7.154499144e-06 1.014238933e-07 2.610519368e-05 )
( 2.64080154e-05 -2.341497293e-06 6.33890636e-07 5.666597644e-06 9.89454918e-08 2.584581307e-05 )
( 2.639155355e-05 -2.334693818e-06 6.202731697e-07 5.644464181e-06 9.992703554e-08 2.581006629e-05 )
( 2.635231795e-05 -2.330475127e-06 5.783195434e-07 5.565610081e-06 1.042070892e-07 2.57289721e-05 )
( 2.637107536e-05 -2.33729611e-06 5.968825576e-07 5.590698038e-06 1.022922689e-07 2.57595093e-05 )
( 8.681488907e-06 -1.772888112e-07 7.88672736e-08 1.137886372e-07 -4.0076924e-09 9.494220649e-06 )
( 8.747232641e-06 -1.801776364e-07 7.646254829e-08 1.144792208e-07 -3.482867106e-09 9.51151651e-06 )
( 5.507843525e-06 -8.595080203e-08 5.324390173e-08 4.605320569e-08 -2.333469196e-09 6.55781605e-06 )
( 5.459316981e-06 -8.410980712e-08 5.345961895e-08 4.586697244e-08 -1.989477028e-09 6.546840268e-06 )
( 1.256370342e-05 -3.199153866e-07 8.352609626e-08 2.455845163e-07 -5.190642138e-09 1.259980854e-05 )
( 1.262231581e-05 -3.216534026e-07 8.538712137e-08 2.462676889e-07 -5.52753443e-09 1.261963644e-05 )
( 8.869886187e-06 -1.846505455e-07 7.407227542e-08 1.152900637e-07 -3.387353953e-09 9.551679796e-06 )
( 8.810256986e-06 -1.828201022e-07 7.493628829e-08 1.149520017e-07 -3.19572746e-09 9.529045201e-06 )
( 1.998011794e-05 -7.090552572e-07 7.268989322e-08 8.43650696e-07 5.762540667e-09 1.838173921e-05 )
( 2.004767703e-05 -7.136077329e-07 7.894939813e-08 8.477806546e-07 6.54758292e-09 1.843131213e-05 )
( 1.671440623e-05 -5.068378073e-07 7.871992835e-08 4.841590453e-07 1.432669761e-09 1.573619011e-05 )
( 1.663910189e-05 -5.035957997e-07 7.715129158e-08 4.815150305e-07 9.511311738e-10 1.569577944e-05 )
( 2.45248084e-05 -1.201644181e-06 1.743365203e-07 2.048047918e-06 3.266889337e-08 2.286857125e-05 )
( 2.456503535e-05 -1.202170779e-06 1.884939564e-07 2.062133717e-06 3.340893429e-08 2.294666956e-05 )
( 2.285920164e-05 -9.553823475e-07 1.392264863e-07 1.383027211e-06 2.185969983e-08 2.107392174e-05 )
( 2.280544322e-05 -9.546126876e-07 1.263089189e-07 1.377872763e-06 2.241395691e-08 2.099465928e-05 )
( 2.573897655e-05 -1.522143748e-06 3.1254757e-07 2.954966703e-06 4.798137354e-08 2.444721031e-05 )
( 2.616627353e-05 -1.894499292e-06 4.014292472e-07 4.075647666e-06 7.858125173e-08 2.516910536e-05 )
( 2.569748358e-05 -1.516680527e-06 2.991085637e-07 2.952314389e-06 4.855217028e-08 2.440353455e-05 )
( 2.618185681e-05 -1.90101116e-06 4.238298459e-07 4.106927008e-06 8.004157337e-08 2.52045138e-05 )
( 2.561886504e-05 -1.506990316e-06 2.673196491e-07 2.929801212e-06 4.920373442e-08 2.429198867e-05 )
( 2.565904288e-05 -1.510793368e-06 2.793176463e-07 2.934696113e-06 4.883365534e-08 2.434456837e-05 )
( 2.62332469e-05 -1.911414756e-06 4.73835172e-07 4.156840077e-06 7.798335844e-08 2.527947072e-05 )
( 2.621737804e-05 -1.902638928e-06 4.525809629e-07 4.126261047e-06 7.812460012e-08 2.524215233e-05 )
( 2.467140439e-05 -1.205256467e-06 2.14079904e-07 2.075775683e-06 3.250995206e-08 2.310244599e-05 )
( 2.462861084e-05 -1.20369657e-06 2.024508916e-07 2.062480235e-06 3.2985497e-08 2.302859684e-05 )
( 2.269779725e-05 -9.502981584e-07 1.021361555e-07 1.370763812e-06 2.062339099e-08 2.084198059e-05 )
( 2.275011502e-05 -9.506329661e-07 1.135146448e-07 1.375747615e-06 2.21891483e-08 2.091666829e-05 )
( 2.018131818e-05 -7.222240583e-07 9.106144461e-08 8.533911e-07 1.077158984e-08 1.854082439e-05 )
( 2.011531251e-05 -7.189505595e-07 8.459230827e-08 8.507989833e-07 8.466328971e-09 1.848375723e-05 )