/*--------------------------------*- C++ -*----------------------------------*\
  =========                 |
  \\      /  F ield         | OpenFOAM: The Open Source CFD Toolbox
   \\    /   O peration     | Website:  https://openfoam.org
    \\  /    A nd           | Version:  8
     \\/     M anipulation  |
\*---------------------------------------------------------------------------*/







FoamFile
{
    version     2.0;
    format      ascii;
    class       volScalarField;
    location    "0";
    object      V;
}
// * * * * * * * * * * * * * * * * * * * * * * * * * * * * * * * * * * * * * //

dimensions      [0 3 0 0 0 0 0];


internalField   nonuniform List<scalar> 
8940
(
2.444910546e-05
2.495912997e-05
2.042002847e-05
2.437817849e-05
2.220069194e-05
1.213936414e-05
1.451351332e-05
2.44640056e-05
2.547410365e-05
2.382158848e-05
9.597624069e-06
1.103037933e-05
1.16781839e-05
2.340468469e-05
2.617215939e-05
8.07998762e-05
1.96254928e-05
8.280330254e-06
1.40216441e-05
9.23463383e-06
9.443216677e-06
2.198729769e-05
2.525763408e-05
7.57372767e-05
7.659601193e-05
1.193824746e-05
7.103790429e-06
1.138603559e-05
9.274064402e-06
7.729747296e-06
7.669465904e-06
2.363133088e-05
2.410694846e-05
2.46354028e-05
7.37309447e-05
2.37239699e-05
7.681717964e-05
1.070621097e-05
6.067206172e-06
9.283010256e-06
8.06033264e-06
6.469069992e-06
6.252911735e-06
1.951866843e-05
2.446047046e-05
7.46743506e-05
2.527717182e-05
8.006779219e-05
2.363376095e-05
0.0002312306708
9.014746149e-06
1.373745536e-05
5.163281018e-06
7.595094071e-06
6.958042816e-06
5.413290583e-06
5.115157874e-06
2.143726712e-05
1.1666621e-05
7.702272808e-05
7.281201403e-05
2.406231403e-05
2.244350031e-05
0.00023386888
0.0002258218436
7.583416401e-06
1.120368158e-05
9.159410184e-06
4.381260362e-06
6.233153429e-06
5.974359027e-06
4.529329675e-06
4.196635819e-06
2.28638434e-05
1.054642215e-05
7.060953481e-05
2.280311428e-05
2.291451659e-05
2.387958124e-05
2.094919939e-05
0.0002189998215
0.0002382284886
7.1587082e-05
7.012605331e-05
6.374409614e-06
9.170128788e-06
7.989313607e-06
3.708888895e-06
5.129012774e-06
5.107807563e-06
3.789378572e-06
3.451712055e-06
1.876104559e-05
8.909467747e-06
1.341829854e-05
7.616003383e-05
2.326528051e-05
2.260662344e-05
2.437707212e-05
2.236487696e-05
0.0002299081355
0.0002308773155
0.0002443618624
6.877412837e-05
7.176186995e-05
5.354716372e-06
7.529251496e-06
6.918103432e-06
3.133627044e-06
4.230100625e-06
4.351894233e-06
3.170081958e-06
2.845139236e-06
1.131459674e-05
7.51679827e-06
1.097299079e-05
8.824760128e-06
7.039370036e-05
2.015649697e-05
2.152255352e-05
2.419715713e-05
1.81277048e-05
6.941553427e-05
7.121480248e-05
0.0002151511367
0.0002347920233
7.361942952e-05
7.302976497e-05
4.495747253e-06
6.198825529e-06
5.95623109e-06
2.643383966e-06
3.495560605e-06
3.697477958e-06
2.6518398e-06
2.349479209e-06
1.009141317e-05
6.335006833e-06
9.003621712e-06
7.726322772e-06
2.220860876e-05
2.212629048e-05
2.238348116e-05
2.101665123e-05
2.371707962e-05
1.032837044e-05
1.267217105e-05
6.976316169e-05
0.0002249316933
6.982966779e-05
0.0002264907704
2.276679635e-05
2.263342771e-05
2.35220849e-05
7.018811656e-05
3.772903782e-06
5.11547589e-06
5.104681596e-06
2.226918973e-06
2.893394929e-06
3.134298187e-06
2.21821392e-06
8.575846998e-06
5.334267143e-06
7.409449014e-06
6.712078715e-06
2.199653391e-05
2.134303936e-05
1.381491488e-05
1.920238822e-05
8.300240904e-06
9.247769068e-06
1.044024052e-05
7.197934243e-05
6.812893516e-05
6.657086681e-05
0.000209285635
6.518386472e-05
2.342709119e-05
2.218810193e-05
2.372845635e-05
6.807916393e-05
3.165122973e-06
4.229972888e-06
4.358801594e-06
2.398364855e-06
2.651926562e-06
7.272706939e-06
4.488302448e-06
6.113086161e-06
5.79537014e-06
2.151403683e-05
2.336309248e-05
1.006795329e-05
1.102825077e-05
1.087849242e-05
1.356411823e-05
7.338966655e-06
7.961455479e-06
8.623813682e-06
6.314087305e-05
6.613101153e-05
6.63898267e-05
0.0002105847762
6.658922677e-05
2.017171728e-05
2.066719434e-05
2.305454922e-05
2.040887231e-05
2.058803173e-05
2.099390079e-05
2.654444038e-06
3.503786723e-06
3.71081685e-06
2.240335889e-06
6.157022963e-06
3.774189993e-06
5.054617881e-06
4.979541349e-06
1.383655865e-05
1.880075335e-05
8.588948834e-06
9.207329057e-06
9.595261668e-06
8.709598045e-06
1.102775612e-05
6.427786867e-06
6.826392034e-06
7.139446011e-06
6.259633873e-05
6.45197482e-05
6.678104462e-05
6.878189499e-05
6.601752492e-05
2.016472786e-05
1.987915397e-05
1.959568004e-05
2.062582589e-05
2.209563526e-05
2.424060527e-05
1.897495652e-05
2.225600217e-06
2.906533913e-06
3.151486785e-06
5.205133448e-06
3.172085735e-06
4.187301671e-06
4.261844559e-06
1.113145592e-05
1.03603604e-05
1.037729499e-05
1.346379275e-05
7.305322206e-06
7.68731478e-06
8.236593125e-06
7.633161724e-06
8.998773934e-06
5.588389705e-06
5.834022606e-06
5.922020366e-06
2.05608003e-05
1.938013975e-05
1.947771354e-05
2.183195267e-05
2.140620256e-05
6.341348608e-05
6.353035482e-05
6.181538169e-05
2.00446826e-05
1.852196343e-05
1.274742453e-05
1.430178013e-05
1.811704256e-05
1.926237562e-05
2.414100004e-06
2.671133998e-06
4.395272987e-06
2.664911933e-06
3.474400419e-06
3.636046339e-06
9.280235554e-06
8.797668842e-06
9.284788103e-06
8.575511593e-06
1.095504895e-05
6.198404714e-06
6.418424836e-06
7.039678174e-06
6.630939256e-06
7.366702894e-06
4.830426158e-06
4.972634475e-06
4.920346547e-06
1.920826157e-05
1.935533693e-05
1.762802111e-05
2.031352596e-05
2.022600891e-05
2.022311981e-05
1.978565217e-05
2.186373884e-05
2.130055766e-05
2.083264172e-05
2.115629533e-05
1.946951028e-05
1.917857917e-05
9.769490931e-06
1.01042666e-05
1.09470655e-05
1.050601811e-05
9.863013481e-06
1.303574663e-05
1.168053603e-05
2.260287718e-06
3.707831253e-06
2.238045037e-06
2.886833382e-06
3.094136318e-06
7.738628215e-06
7.451214388e-06
8.002732634e-06
7.527700562e-06
8.947413853e-06
5.248718114e-06
5.35912642e-06
5.995702774e-06
5.720852385e-06
6.047399915e-06
4.15591567e-06
4.229178383e-06
4.093896744e-06
1.979767102e-05
1.823124985e-05
1.592880822e-05
1.852565557e-05
2.076636554e-05
1.832332949e-05
1.797191333e-05
1.929389393e-05
1.884980898e-05
1.859444871e-05
1.84697929e-05
1.164826444e-05
1.138033698e-05
8.370146119e-06
8.579902428e-06
9.162991548e-06
8.876333236e-06
8.663756449e-06
8.143455777e-06
1.065263086e-05
9.008046058e-06
8.931472419e-06
3.125400557e-06
2.401432145e-06
2.627428157e-06
6.454333774e-06
6.297404855e-06
6.865886719e-06
6.551759924e-06
7.331803346e-06
4.437245691e-06
4.474768173e-06
5.092100394e-06
4.908976672e-06
4.976243971e-06
3.562226793e-06
3.590418174e-06
3.410380491e-06
1.039898728e-05
9.147047375e-06
1.159949125e-05
1.719910035e-05
2.013599601e-05
1.786233089e-05
1.627080608e-05
1.703495343e-05
1.651353117e-05
1.53692333e-05
1.59233639e-05
9.149772728e-06
9.030292517e-06
9.007841541e-06
8.62920849e-06
7.14459925e-06
7.268349782e-06
7.665466592e-06
7.48573185e-06
7.575507786e-06
7.198945524e-06
8.733427674e-06
7.805239052e-06
7.762060276e-06
2.63270477e-06
2.227235929e-06
5.384040622e-06
5.312982788e-06
5.868662478e-06
5.664453795e-06
6.025121407e-06
3.746151751e-06
3.736433408e-06
4.314699568e-06
4.194131488e-06
4.103202185e-06
3.044076757e-06
3.043615553e-06
2.843902846e-06
9.57367585e-06
8.406355046e-06
7.429611701e-06
8.231609651e-06
9.723094194e-06
1.242784632e-05
1.04020712e-05
9.164013965e-06
1.209469498e-05
1.54515945e-05
1.484728191e-05
1.263528165e-05
1.396219805e-05
7.89272286e-06
7.816492222e-06
7.812113653e-06
7.581837217e-06
6.080137591e-06
6.14541588e-06
6.409774391e-06
6.303506929e-06
6.576766996e-06
6.301309013e-06
7.180158235e-06
6.727921554e-06
6.706630954e-06
2.216450089e-06
4.491835473e-06
4.47601716e-06
5.001170585e-06
4.871531118e-06
4.963555884e-06
3.159152645e-06
3.11999286e-06
3.649074141e-06
3.570924287e-06
3.389235318e-06
2.594838115e-06
2.576922213e-06
2.373585544e-06
8.289153232e-06
7.545574546e-06
6.707974759e-06
7.263817261e-06
8.152061727e-06
9.590305887e-06
1.039023582e-05
8.309032067e-06
8.899582114e-06
7.633415508e-06
1.018930153e-05
1.511655354e-05
1.428486524e-05
1.110831312e-05
1.316138176e-05
6.779097989e-06
6.732277473e-06
6.737938653e-06
6.608126654e-06
5.161570586e-06
5.187742847e-06
5.357762109e-06
5.301424767e-06
5.677529874e-06
5.473489554e-06
5.917493024e-06
5.775128523e-06
5.76785503e-06
3.747908433e-06
3.766441505e-06
4.251437456e-06
4.171940377e-06
4.097711422e-06
2.661658548e-06
2.605308671e-06
3.081337473e-06
3.031749485e-06
2.80365545e-06
2.20738584e-06
2.179567425e-06
7.132880048e-06
6.674027943e-06
5.973570561e-06
6.356350113e-06
6.83617363e-06
8.338249087e-06
8.685371247e-06
7.519889517e-06
7.868727562e-06
7.136354969e-06
8.571588231e-06
1.27820963e-05
1.214983066e-05
9.742280944e-06
1.128405695e-05
5.80235556e-06
5.775315215e-06
5.785937407e-06
5.723132184e-06
4.372968311e-06
4.373594089e-06
4.477017776e-06
4.454090398e-06
4.879161486e-06
4.725851113e-06
4.887059882e-06
4.940542309e-06
4.941951444e-06
3.127488785e-06
3.166252239e-06
3.606817277e-06
3.560653258e-06
3.389050118e-06
2.240777637e-06
2.17557205e-06
2.598596306e-06
2.56807093e-06
2.322165733e-06
6.107953855e-06
5.838400599e-06
5.264357587e-06
5.525814767e-06
5.733619784e-06
7.196531561e-06
7.259320755e-06
6.690678216e-06
6.88545261e-06
6.509181878e-06
7.202067825e-06
1.076813373e-05
1.028815809e-05
8.462635798e-06
9.619275702e-06
4.952283888e-06
4.938353384e-06
4.950817259e-06
4.931767359e-06
3.698725123e-06
3.683240783e-06
3.740090979e-06
3.739023177e-06
4.177808922e-06
4.060797536e-06
4.04327519e-06
4.214945265e-06
4.221454347e-06
2.609986188e-06
2.659547998e-06
3.054862288e-06
3.030523084e-06
2.807287301e-06
2.189162652e-06
2.171213939e-06
5.209841749e-06
5.064385326e-06
4.602045588e-06
4.778752063e-06
4.809550489e-06
6.175361709e-06
6.066770272e-06
5.878335806e-06
5.977042704e-06
5.833674684e-06
6.045372789e-06
9.044544925e-06
8.680925602e-06
7.296761799e-06
8.163008268e-06
4.216954228e-06
4.211538093e-06
4.224009574e-06
4.232666924e-06
3.124169338e-06
3.099089277e-06
3.12379596e-06
3.13655504e-06
3.566696307e-06
3.475897728e-06
3.350274815e-06
3.587811937e-06
3.597054256e-06
2.178265012e-06
2.232430347e-06
2.583831898e-06
2.573487396e-06
2.328451853e-06
4.429742031e-06
4.364091606e-06
3.997596584e-06
4.115360053e-06
4.034882631e-06
5.274813946e-06
5.069683995e-06
5.115448627e-06
5.156064423e-06
5.160756367e-06
5.070295438e-06
7.578625669e-06
7.303924226e-06
6.255014564e-06
6.902146397e-06
3.583960083e-06
3.583916515e-06
3.595392498e-06
3.620774819e-06
2.635885383e-06
2.605654399e-06
2.60859259e-06
2.629631239e-06
3.037612661e-06
2.965957727e-06
2.779652059e-06
3.048325734e-06
3.058763222e-06
2.182953137e-06
2.181318136e-06
3.75676988e-06
3.741061501e-06
3.45501589e-06
3.532010988e-06
3.385329373e-06
4.489024047e-06
4.236160862e-06
4.418728837e-06
4.425789429e-06
4.520619439e-06
4.249606733e-06
6.337950694e-06
6.131187776e-06
5.33729633e-06
5.819032625e-06
3.041187318e-06
3.044385188e-06
3.054386525e-06
3.089065915e-06
2.221833459e-06
2.189438552e-06
2.178043556e-06
2.203570014e-06
2.58187386e-06
2.524387786e-06
2.308756976e-06
2.58599294e-06
2.596655122e-06
3.17934343e-06
3.193632699e-06
2.973943762e-06
3.022934885e-06
2.840587876e-06
3.808938026e-06
3.539464378e-06
3.794761268e-06
3.783837938e-06
3.929714525e-06
3.559752211e-06
5.291991508e-06
5.13710567e-06
4.537410311e-06
4.894305112e-06
2.577248944e-06
2.582262282e-06
2.590630881e-06
2.629663167e-06
2.190913036e-06
2.14407424e-06
2.190996714e-06
2.201295248e-06
2.686029247e-06
2.717161878e-06
2.551410302e-06
2.581336704e-06
2.383676726e-06
3.224072083e-06
2.957200897e-06
3.243866813e-06
3.22460392e-06
3.395547428e-06
2.980490081e-06
4.412934484e-06
4.297617652e-06
3.845905542e-06
4.108620252e-06
2.181720025e-06
2.187610041e-06
2.194375804e-06
2.234540729e-06
2.266035949e-06
2.305482334e-06
2.183008291e-06
2.20010673e-06
2.723623697e-06
2.470620463e-06
2.762674532e-06
2.740841733e-06
2.919953186e-06
2.494518983e-06
3.676002114e-06
3.590815288e-06
3.251899201e-06
3.443646316e-06
2.297129791e-06
2.345813135e-06
2.324680264e-06
2.50130399e-06
3.059472537e-06
2.997174136e-06
2.74421223e-06
2.882582741e-06
2.214749656e-06
2.638222654e-06
2.241704883e-06
3.142215408e-06
2.647295009e-06
2.407077656e-06
3.741838539e-06
3.121546226e-06
2.894933235e-06
2.226335322e-06
4.454947826e-06
3.674018935e-06
3.486548158e-06
2.649433357e-06
2.26121566e-06
5.302613107e-06
4.314640527e-06
4.205965284e-06
3.152467453e-06
2.668622152e-06
2.425763182e-06
6.309635093e-06
5.053176286e-06
5.08356698e-06
3.750330136e-06
3.14453824e-06
2.915489007e-06
2.246796522e-06
7.5051287e-06
5.898341258e-06
6.158010377e-06
4.460604373e-06
3.698345469e-06
3.508327779e-06
2.672826858e-06
2.298290412e-06
8.923163552e-06
6.8563952e-06
7.478849923e-06
5.304000903e-06
4.339715234e-06
4.227725316e-06
3.178085448e-06
2.712967709e-06
2.459436466e-06
1.06034449e-05
7.928969926e-06
9.110088837e-06
6.304868953e-06
5.07803753e-06
5.103140036e-06
3.776635452e-06
3.196136004e-06
2.959927485e-06
2.480254661e-06
1.18405946e-05
9.109765193e-06
1.113505339e-05
7.491747581e-06
5.921497887e-06
6.171827959e-06
4.484736243e-06
3.756272822e-06
3.564344389e-06
3.027995649e-06
2.26518808e-06
1.933991601e-05
1.366305532e-05
8.897979432e-06
6.875607474e-06
7.481250441e-06
5.321057023e-06
4.401515957e-06
4.295150083e-06
3.705171428e-06
2.727945449e-06
2.277755659e-06
2.327630082e-05
2.191880553e-05
1.056234642e-05
7.940945057e-06
9.092311317e-06
6.306830473e-06
5.138775784e-06
5.180033691e-06
4.545964589e-06
3.285956596e-06
2.719538204e-06
2.414978289e-06
2.165259349e-05
1.170607788e-05
2.325891957e-05
2.433920653e-05
9.109745945e-06
1.108377298e-05
7.465911033e-06
5.972318373e-06
6.253279274e-06
5.595020894e-06
3.959134726e-06
3.243148406e-06
2.935375657e-06
2.229981833e-06
2.471487749e-05
1.940669311e-05
2.438000658e-05
2.5323928e-05
7.889291419e-05
1.355829492e-05
8.824658808e-06
6.901594986e-06
7.557539859e-06
6.911148528e-06
4.771693902e-06
3.861975788e-06
3.574439959e-06
2.681021976e-06
2.255167195e-06
2.293302479e-05
2.456019225e-05
2.448737072e-05
2.660511576e-05
8.02340395e-05
7.763308155e-05
1.041153876e-05
7.917941059e-06
9.146187052e-06
8.572500266e-06
5.753128337e-06
4.590754898e-06
4.36200608e-06
3.224039969e-06
2.690644299e-06
2.400298214e-06
2.148251524e-05
1.145271859e-05
7.983697355e-05
2.577816613e-05
2.599058105e-05
7.935829377e-05
8.403944537e-05
0.0002517821364
8.999653194e-06
1.108640467e-05
1.068384774e-05
6.939451668e-06
5.445237173e-06
5.33652866e-06
3.878111843e-06
3.206868701e-06
2.921503066e-06
2.219952764e-06
1.707279813e-05
2.370295474e-05
8.670597763e-05
2.756484274e-05
8.76456888e-05
8.327754469e-05
0.0002575240727
0.0002467047358
1.346333122e-05
1.338684427e-05
8.374754739e-06
6.441543538e-06
6.547972985e-06
4.66640772e-06
3.817299172e-06
3.563336047e-06
2.675354984e-06
2.22490475e-06
2.255305556e-05
2.568295328e-05
8.142262189e-05
2.715968563e-05
8.415915689e-05
0.0002634707769
0.0002626564863
0.0002575709024
0.0002613667629
1.68745824e-05
1.011318459e-05
7.594997271e-06
8.06181716e-06
5.617130076e-06
4.536925002e-06
4.356856136e-06
3.225759753e-06
2.66245339e-06
2.357018728e-06
2.648113775e-05
2.66067601e-05
8.926447456e-05
8.327245806e-05
0.0002760757671
0.0002690058549
0.0002717325239
0.0002770855567
0.0002692376866
1.222148046e-05
8.918182871e-06
9.964602904e-06
6.764688409e-06
5.382064919e-06
5.342354715e-06
3.891678101e-06
3.183782798e-06
2.87972806e-06
2.180500382e-06
2.586081959e-05
1.360371018e-05
9.40510769e-05
8.606681794e-05
2.575709024e-05
2.773882191e-05
0.0002764457265
9.096716962e-05
0.000277049942
0.0002790765021
0.0002819547232
0.0002889362422
0.0002762605937
1.041783082e-05
1.23717004e-05
8.151182292e-06
6.369911848e-06
6.572550772e-06
4.698335207e-06
3.803914377e-06
3.527552212e-06
2.637055927e-06
2.250047613e-06
2.199970434e-05
8.616726148e-05
2.812661997e-05
2.868322288e-05
2.642526829e-05
2.447906774e-05
0.0002986319445
0.0002981512189
9.150073433e-05
0.0002856789101
0.0002837605358
0.0002891369042
0.0002946051125
0.0003013429423
0.0002827337826
1.54382105e-05
9.828294936e-06
7.517654964e-06
8.117006985e-06
5.676896085e-06
4.540079132e-06
4.334273847e-06
3.193255557e-06
2.698231292e-06
2.180316898e-06
8.789093252e-05
2.770083081e-05
2.652361931e-05
1.321439092e-05
2.195398141e-05
0.0002867898382
0.0003120508333
9.142983101e-05
8.866100178e-05
9.643570188e-05
0.0002952601677
0.0002918504854
0.0002896652839
0.0003001785496
0.0003072253432
0.0003167266283
0.0002883513216
1.185970542e-05
8.840992233e-06
1.006830711e-05
6.866019708e-06
5.411821645e-06
5.344272516e-06
3.872564033e-06
3.237234174e-06
2.602880873e-06
2.164551807e-06
2.754161357e-05
2.975768676e-05
2.718731053e-05
2.718120519e-05
1.035166168e-05
1.573241388e-05
0.0003105970608
0.0003109391158
0.0003290557337
8.974258677e-05
9.591642241e-05
2.977112263e-05
3.0345847e-05
0.0003056441481
0.0003007479666
0.0002972569489
0.0002948316165
0.0003122884682
0.0003208850761
0.0003320893067
0.0002931808116
1.255072247e-05
8.313918199e-06
6.440941111e-06
6.616368417e-06
4.70467255e-06
3.886113575e-06
3.107916791e-06
2.575564038e-06
2.325963584e-06
2.876135759e-05
2.62368156e-05
2.349368716e-05
1.387613759e-05
1.224373626e-05
9.338758207e-05
0.0003009187919
9.694208602e-05
0.000325790487
0.0003457830859
0.0001028850073
2.911505462e-05
2.875671838e-05
2.869399046e-05
2.791623136e-05
0.0003169931587
0.0003105445261
0.000305618196
0.0003019460715
0.0002992548243
0.0003252630386
0.0003356494649
0.0003483322091
0.0002972733462
1.008105606e-05
7.65121847e-06
8.229180775e-06
5.727416828e-06
4.66820341e-06
3.711757378e-06
3.062796783e-06
2.835804123e-06
2.182512132e-06
1.636458635e-05
2.542243128e-05
1.637724365e-05
1.071567412e-05
0.0001038746076
0.0003266666375
0.0003298902455
9.664873553e-05
0.0003440008871
0.0003631523636
3.085251275e-05
2.973648281e-05
2.891105183e-05
2.930587616e-05
2.695771703e-05
2.48980962e-05
0.0003293083919
0.0003212796679
0.0003148642416
0.0003098324077
0.0003059501536
0.0003029817693
0.0003391549388
0.0003510264803
0.0003648008122
9.067748956e-06
1.028869863e-05
6.989376224e-06
5.612177392e-06
4.434069902e-06
3.639587181e-06
3.466624457e-06
2.642721002e-06
2.237339179e-06
1.294182846e-05
1.185721244e-05
1.237282537e-05
1.293896353e-05
3.108640324e-05
3.249307741e-05
3.030792328e-05
0.0003186515387
0.0003420259269
0.0001044322135
0.000100357261
0.0001122114833
0.0003614994661
0.0003795265569
2.872655821e-05
3.211953986e-05
2.878599193e-05
2.69049297e-05
2.264475905e-05
0.0003425018628
0.0003329675892
0.0003250551796
0.000318597524
0.0003134136071
0.0003093079308
0.0003537961994
0.0003668973494
0.0003820689065
8.55342315e-06
6.753428073e-06
5.298571159e-06
4.321253216e-06
4.250883604e-06
3.20418221e-06
2.695116893e-06
2.188691089e-06
1.050159313e-05
1.085124862e-05
9.814220798e-06
9.983705069e-06
3.472869919e-05
3.416234045e-05
3.230924111e-05
0.0003532729346
0.000344155237
0.0003608541668
0.0001085351786
0.0001069603408
3.443416014e-05
3.327994279e-05
0.0003802711922
0.001012458416
2.457977855e-05
1.998814215e-05
1.669223163e-05
1.336107823e-05
1.587443087e-05
0.0003455345446
0.0003564206397
0.0003361905164
0.0003283046299
0.0003217562965
0.0003164016631
0.0003688375889
0.0003822115214
8.135857972e-06
6.333924436e-06
5.125218269e-06
5.231167671e-06
3.890970593e-06
3.248693735e-06
2.626448081e-06
2.150440873e-06
9.063501911e-06
8.476498361e-06
2.084540767e-05
2.719471678e-05
3.259353518e-05
0.0001142337323
0.0003372260102
0.0001174136049
0.0003593318267
0.0003777873012
0.000113838075
3.55375602e-05
0.0001079120726
3.223295492e-05
0.001012971326
0.00101461748
1.687445852e-05
1.476691412e-05
1.457353201e-05
1.313340305e-05
1.240510377e-05
1.055854097e-05
1.142491288e-05
1.256724308e-05
0.0003481989288
0.000358826128
0.0003708540977
0.0003389536772
0.0003310401762
0.0003243759582
0.0003844968724
7.574847715e-06
6.071053666e-06
6.463819248e-06
4.733632041e-06
3.919035618e-06
3.152392246e-06
2.573258884e-06
2.286858941e-06
7.180375721e-06
1.494312132e-05
1.592487109e-05
1.634116264e-05
1.904602441e-05
3.257864108e-05
0.0001150754005
0.0003603289953
0.0003584761647
0.0001247147941
0.0003795485416
0.0001131251356
3.370365395e-05
3.279315769e-05
3.420996904e-05
3.656449567e-05
3.004560634e-05
0.00101832401
0.001017372403
1.320417939e-05
1.180874284e-05
1.163438803e-05
1.063594376e-05
1.019286321e-05
8.884475445e-06
9.490353661e-06
1.001280036e-05
0.0003504709546
0.000360924313
0.0003725742434
0.0003850531294
0.0003412643064
0.000333292426
8.024001806e-06
5.771193821e-06
4.732094806e-06
3.784556756e-06
3.077977886e-06
2.805434432e-06
2.199739673e-06
1.199682386e-05
1.268276651e-05
1.161664785e-05
1.448929022e-05
1.543177352e-05
2.759977851e-05
0.000115713672
0.000359968526
0.0003773086933
0.000378719661
0.0001175377334
0.0001091602941
3.806123642e-05
3.452133954e-05
2.811270574e-05
3.421119712e-05
0.001100271579
0.001019510308
0.00038679077
1.040698966e-05
9.487315451e-06
9.335269597e-06
8.647029558e-06
8.39300085e-06
7.464352842e-06
7.888718657e-06
0.0003523544541
0.0003627061672
0.0003741578695
0.0003431486588
7.053913059e-06
5.720139713e-06
4.544784002e-06
3.67991049e-06
3.452412768e-06
2.685156438e-06
2.234394799e-06
9.670435758e-06
1.01518039e-05
8.963981269e-06
1.154373708e-05
2.044113553e-05
1.254153387e-05
2.147654702e-05
0.0001155027839
0.0003597834157
0.0003530426756
0.0001142686709
0.0001162911188
3.762259267e-05
3.73808627e-05
3.175737964e-05
3.196964129e-05
3.35632439e-05
0.0003417004316
0.001020462692
0.0003884699366
0.0003873614568
8.256839855e-06
7.653221098e-06
7.523911395e-06
6.923520068e-06
6.263318937e-06
6.56112301e-06
0.0003641575136
0.0003538689818
0.0003754148635
5.45956781e-06
4.396986765e-06
4.264041521e-06
3.283411346e-06
2.729839602e-06
2.300583223e-06
7.822338523e-06
8.161758655e-06
6.97276116e-06
9.249160547e-06
1.570157429e-05
1.682061535e-05
1.021918073e-05
1.546743084e-05
3.347395668e-05
3.453456538e-05
3.252718258e-05
3.018907665e-05
3.084723415e-05
0.0003888503297
0.0003893898027
6.590328617e-06
6.195324706e-06
6.087531593e-06
5.250078685e-06
0.000376458268
0.000365301864
5.288491567e-06
4.023257195e-06
3.340253545e-06
2.809593091e-06
2.347452847e-06
6.34627485e-06
6.586835066e-06
5.465446565e-06
7.448184255e-06
1.216240171e-05
1.332805331e-05
1.166391328e-05
8.345312575e-06
1.468229628e-05
3.196027779e-05
3.183657993e-05
2.87763004e-05
2.643066932e-05
2.351972089e-05
0.0003772151216
5.030194934e-06
4.941837758e-06
4.094614672e-06
3.435559282e-06
2.873829631e-06
3.100997066e-06
5.161773564e-06
5.333198048e-06
4.314764852e-06
6.024702024e-06
9.495528305e-06
1.062610292e-05
9.767195336e-06
6.827833045e-06
1.187538588e-05
2.871007147e-05
2.842814265e-05
2.542022414e-05
2.352632863e-05
1.807029265e-05
4.207338004e-06
3.524129494e-06
3.771417019e-06
1.444312215e-06
4.330195284e-06
3.428973973e-06
4.892346748e-06
7.46776266e-06
8.519145716e-06
8.176225272e-06
5.595125528e-06
9.645632445e-06
2.438695562e-05
2.513747867e-05
2.323308478e-05
1.821340251e-05
1.400039199e-05
4.591076865e-06
1.780305622e-06
2.19119663e-06
2.741541149e-06
3.986331541e-06
5.912314402e-06
6.863848455e-06
6.842544805e-06
7.863550712e-06
2.347684913e-05
2.310682579e-05
1.814549593e-05
1.42086347e-05
1.093216275e-05
2.203891895e-06
2.668855599e-06
2.450757555e-06
3.257637396e-06
4.709048574e-06
5.554365984e-06
5.72511633e-06
6.43138591e-06
1.833608561e-05
1.814627029e-05
1.426522872e-05
1.116105403e-05
8.597664678e-06
3.033707033e-06
2.462497586e-06
3.770777672e-06
4.511880948e-06
4.789274763e-06
5.274738938e-06
1.44066885e-05
1.433055997e-05
1.127953894e-05
8.820913421e-06
6.805571555e-06
3.00549498e-06
2.342318901e-06
3.677203439e-06
4.005787775e-06
4.336504239e-06
1.137731519e-05
1.137193987e-05
8.963507518e-06
7.008904448e-06
5.418209298e-06
2.801348837e-06
2.436779736e-06
3.350045051e-06
3.572502515e-06
9.023953277e-06
9.061423912e-06
7.153758102e-06
5.595080222e-06
4.335695956e-06
2.948281684e-06
2.811909783e-06
7.183521191e-06
7.245621921e-06
5.730395469e-06
4.484338226e-06
3.484927397e-06
2.908674292e-06
5.735904437e-06
5.810743208e-06
4.604517815e-06
3.606369705e-06
2.995041076e-06
4.591635558e-06
4.671493987e-06
3.709527777e-06
3.036824242e-06
3.683361492e-06
3.763301857e-06
2.959871959e-06
2.376918842e-05
2.502769775e-05
1.982519376e-05
2.477577035e-05
2.211463703e-05
1.194018644e-05
1.378564279e-05
2.476719575e-05
2.609212558e-05
2.377773945e-05
9.265062053e-06
1.077881943e-05
1.122289031e-05
2.371162276e-05
2.686484952e-05
8.431845801e-05
1.974667931e-05
8.050932833e-06
1.394445493e-05
9.052692554e-06
9.172248814e-06
2.235888438e-05
2.586918136e-05
7.92114698e-05
8.103948475e-05
1.2091131e-05
6.951111334e-06
1.132695092e-05
9.312508906e-06
7.600397421e-06
7.521997002e-06
2.418977729e-05
2.479710491e-05
2.590976493e-05
7.809772292e-05
2.478072555e-05
8.192741744e-05
1.085873789e-05
5.971035173e-06
9.23852748e-06
8.082172045e-06
6.379287342e-06
6.187085755e-06
2.013847275e-05
2.529320286e-05
7.96598351e-05
2.681766747e-05
8.589540463e-05
2.480592065e-05
0.0002498532108
9.108047268e-06
1.41131364e-05
5.10824866e-06
7.562344691e-06
6.969747549e-06
5.353111071e-06
5.102250816e-06
2.23051779e-05
1.215951022e-05
8.276606036e-05
7.852204677e-05
2.561288019e-05
2.376374482e-05
0.000254667474
0.0002461285293
7.637230725e-06
1.145236538e-05
9.497369929e-06
4.355740282e-06
6.209769571e-06
5.980094356e-06
4.491136998e-06
4.217017222e-06
2.403858936e-05
1.107584977e-05
7.653498975e-05
2.469433405e-05
2.442625436e-05
2.563195301e-05
2.249325093e-05
0.0002409100426
0.0002612221903
7.934390857e-05
8.044527026e-05
6.402276997e-06
9.331643269e-06
8.226511169e-06
3.704133706e-06
5.113039657e-06
5.110206201e-06
3.767356192e-06
3.492042112e-06
2.007829379e-05
9.271222524e-06
1.442395756e-05
8.28009934e-05
2.523448033e-05
2.367037558e-05
2.621642067e-05
2.463599048e-05
0.0002452887896
0.0002552981771
0.0002694525855
7.648479872e-05
8.428464001e-05
5.365871299e-06
7.631235941e-06
7.082195626e-06
3.143103394e-06
4.219927101e-06
4.352583824e-06
3.159801332e-06
2.89643556e-06
1.252986093e-05
7.760177893e-06
1.168333037e-05
9.735079486e-06
7.712794625e-05
2.206667592e-05
2.29492661e-05
2.51238764e-05
2.120704724e-05
0.0002427806248
0.000249986891
0.0002631683574
0.0002763260775
7.799330281e-05
8.137978373e-05
4.496447344e-06
6.260431757e-06
6.067478046e-06
2.662246114e-06
3.489864692e-06
3.697431339e-06
2.649938278e-06
2.405765732e-06
1.148855463e-05
6.49510401e-06
9.503789176e-06
8.41945208e-06
2.507234893e-05
2.39601522e-05
2.340127772e-05
1.976074536e-05
2.183418756e-05
1.59019337e-05
1.589217349e-05
0.0002373346686
7.541909275e-05
7.963847724e-05
7.865833227e-05
0.000256360398
0.000270193759
0.0002823381848
7.683377912e-05
2.595935236e-05
3.767348291e-06
5.149955961e-06
5.177916543e-06
2.251606182e-06
2.891099961e-06
3.134067975e-06
2.222148792e-06
9.58966129e-06
5.436063576e-06
7.759816393e-06
7.236724794e-06
2.437004317e-05
2.342140015e-05
2.121405968e-05
2.037590095e-05
1.069738284e-05
1.293321369e-05
1.272329865e-05
0.0002422228528
0.0002512530873
8.213477422e-05
8.350307417e-05
7.599748017e-05
0.0002644069635
0.0002766484387
0.0002875634369
2.331165797e-05
2.481089007e-05
2.415087958e-05
2.53670629e-05
3.156093753e-06
4.24647367e-06
4.404873094e-06
2.398598974e-06
2.651804437e-06
8.004829464e-06
4.549571045e-06
6.356582262e-06
6.189720602e-06
2.188803899e-05
2.293093774e-05
1.796475113e-05
2.206189362e-05
8.754699143e-06
1.01597894e-05
1.07133803e-05
1.024034613e-05
0.000239799368
0.0002463556527
0.000258775416
7.694365655e-05
2.61330592e-05
8.074550442e-05
7.758617492e-05
0.0002711232419
0.0002822282465
0.0002920094284
2.199876291e-05
2.453919804e-05
2.365830621e-05
2.643758003e-06
3.508593142e-06
3.7376504e-06
2.240452328e-06
6.682070612e-06
3.807559401e-06
5.221852774e-06
5.273457533e-06
2.024923489e-05
1.106363691e-05
1.311830694e-05
1.811244407e-05
7.736869207e-06
8.647136247e-06
8.8867324e-06
8.280821349e-06
7.478641417e-05
0.0002338981165
7.780178171e-05
7.865598894e-05
0.0002522677492
0.0002655047387
2.50771527e-05
2.355144759e-05
2.519782635e-05
2.400400969e-05
7.640635231e-05
2.592610447e-05
0.0002769877097
0.0002870036099
2.193429685e-05
2.062927938e-05
2.211269603e-05
2.316920898e-05
2.214414429e-06
2.903953381e-06
3.164856942e-06
5.578013874e-06
3.186514107e-06
4.300162484e-06
4.478621267e-06
8.844912208e-06
1.028567446e-05
1.077645496e-05
1.105476544e-05
1.327795149e-05
6.771282595e-06
7.344046463e-06
7.380125418e-06
6.724076805e-06
8.136333217e-05
0.0002386097555
0.0002471171657
7.520009851e-05
8.244690369e-05
0.0002598622312
0.0002716891692
2.219006886e-05
2.455713119e-05
2.34804305e-05
2.325555654e-05
2.401930625e-05
2.47867031e-05
2.519806504e-05
0.0002820694801
1.82398253e-05
2.231273274e-05
2.04576039e-05
2.407058323e-06
2.675238345e-06
4.656475356e-06
2.666734972e-06
3.548570952e-06
3.793814482e-06
7.740081542e-06
8.696657023e-06
8.880015412e-06
8.924787007e-06
1.036301772e-05
1.086407743e-05
5.881728967e-06
6.226419408e-06
6.135003079e-06
5.479801454e-06
2.591285501e-05
7.608504713e-05
0.0002358650453
0.0002418270584
0.0002540041419
7.695939e-05
8.003302984e-05
0.0002661716605
0.0002770238263
2.209735833e-05
2.070934412e-05
2.20321856e-05
2.296428138e-05
2.444783341e-05
2.199142683e-05
2.350380572e-05
1.11859863e-05
1.331521632e-05
1.827606871e-05
2.258165225e-06
3.88726002e-06
2.231724606e-06
2.933582471e-06
3.206977721e-06
6.725020197e-06
7.346864588e-06
7.336999232e-06
7.780996307e-06
8.744717806e-06
8.921344861e-06
5.078819735e-06
5.271256771e-06
5.104220729e-06
4.479826615e-06
2.496688059e-05
2.481404256e-05
2.372287077e-05
2.328422211e-05
0.0002285322964
7.424449813e-05
0.0002468720123
0.0002601749628
7.655773934e-05
2.563891208e-05
0.0002716788238
1.831577468e-05
1.113424827e-05
2.230601896e-05
2.033662619e-05
2.199691267e-05
2.058195816e-05
2.196725997e-05
2.297946743e-05
1.038176305e-05
8.937410667e-06
1.089141325e-05
1.335354486e-05
3.245175686e-06
2.428866141e-06
2.706252146e-06
5.810152658e-06
6.202174848e-06
6.07622882e-06
6.74135954e-06
7.37539002e-06
7.34939993e-06
4.364828417e-06
4.457292828e-06