/*--------------------------------*- C++ -*----------------------------------*\
  =========                 |
  \\      /  F ield         | OpenFOAM: The Open Source CFD Toolbox
   \\    /   O peration     | Website:  https://openfoam.org
    \\  /    A nd           | Version:  8
     \\/     M anipulation  |
\*---------------------------------------------------------------------------*/






FoamFile
{
    version     2.0;
    format      ascii;
    class       volScalarField;
    location    "0";
    object      V;
}
// * * * * * * * * * * * * * * * * * * * * * * * * * * * * * * * * * * * * * //

dimensions      [0 3 0 0 0 0 0];


internalField   nonuniform List<scalar> 
21771
(
0.001044590392
0.001039406351
0.001010188921
0.001005335941
0.001034349037
0.000972276324
0.0009676192535
0.0009965259011
0.001029712236
0.000930956552
0.0009650945359
0.0009251207204
0.0009947538317
0.001024975844
0.00034036834
0.0003395604232
0.0009345792998
0.0009189114028
0.0003373892478
0.0003361541964
0.0009919573412
0.001017420395
0.0003184030747
0.0003171943714
0.0009563963684
0.0009783238104
0.0003323420767
0.0003317974887
0.0003155939321
0.0003131273656
0.0009873187464
0.001003471773
0.0001115919966
0.000111378158
0.0001109442029
0.0001112269133
0.0003195960858
0.000318296417
0.0003109961259
0.0003266481983
0.0003454563179
0.0009446085271
0.0003099315214
0.0003042975975
0.0001106706918
0.0001102843228
0.0001092864445
0.0001098298081
0.0009754823016
0.0009949818758
0.0001116750494
0.000100847319
0.000100719608
0.0001003516205
0.0001005517684
0.0003221995047
0.0003272068018
0.0002980135208
0.0002950520071
0.0003467289861
0.0003438415446
0.0009323475156
0.0001085172233
0.0001076996693
0.0001054977452
0.0001066540187
0.0001000941391
9.977698364e-05
9.886802924e-05
9.937672131e-05
0.0009361093854
0.0009884082527
0.0001009600428
3.328760466e-05
3.323527968e-05
3.319317424e-05
3.325294104e-05
3.307543535e-05
3.315434981e-05
3.320962597e-05
3.31410703e-05
0.0003069297444
0.0003219094417
0.000328186806
0.0001044872125
0.0001033507754
0.0001015168976
0.0001023893775
0.0003244490565
0.0003402879671
0.0003386077901
0.000962487562
9.823394897e-05
9.744192146e-05
9.535539174e-05
9.647791273e-05
3.308429855e-05
3.299301967e-05
3.288855135e-05
3.299469422e-05
3.258560636e-05
3.273313646e-05
3.288002601e-05
3.275529135e-05
0.0009720249612
0.00095023763
3.326898691e-05
3.331488723e-05
2.863923295e-05
2.862964709e-05
2.859930336e-05
2.861191922e-05
2.851180502e-05
2.853378642e-05
2.857752394e-05
2.856088887e-05
9.813251071e-05
9.193029591e-05
0.0001005632839
0.0001062454678
0.0003089626049
0.0001108662306
9.413836892e-05
9.307739924e-05
9.056705093e-05
9.222137545e-05
0.000302745964
0.0003111186307
0.0003217993333
0.000325830861
0.0003022623267
0.000320835921
0.0003177024967
3.254575837e-05
3.237052143e-05
3.209758746e-05
3.230742408e-05
3.130419858e-05
3.161940009e-05
3.200461352e-05
3.174875885e-05
2.847798223e-05
2.844900351e-05
2.836822216e-05
2.840648143e-05
2.812801746e-05
2.819475276e-05
2.831430318e-05
2.826359854e-05
0.000977437758
0.0003396923291
0.0009799713239
2.865367862e-05
2.866096301e-05
2.455880457e-05
2.454893723e-05
2.452595146e-05
2.453843993e-05
2.44587475e-05
2.447923574e-05
2.451251923e-05
2.449658696e-05
8.815658147e-05
0.000104315158
9.067180358e-05
0.0001021667715
0.0001099990552
0.0001082734666
3.114605675e-05
3.078068092e-05
3.035849667e-05
3.064389679e-05
3.027507451e-05
3.067058623e-05
3.051425039e-05
3.056063661e-05
0.0001055039178
0.0001066598404
0.0003095047407
0.0003043861267
0.0001084453732
0.0001036781353
0.0003335375326
0.0003102136854
0.0003107227535
2.804035701e-05
2.795303485e-05
2.77265564e-05
2.784096913e-05
2.702541658e-05
2.723416799e-05
2.758159575e-05
2.742841136e-05
2.4436278e-05
2.440991017e-05
2.434686524e-05
2.438081871e-05
2.415606915e-05
2.421479512e-05
2.430913821e-05
2.426486097e-05
0.0003227141237
0.0003211507475
0.0003305911897
0.0003091549295
0.0003410564456
2.45670454e-05
2.457487777e-05
2.175059942e-05
2.174324753e-05
2.17254637e-05
2.173486753e-05
2.167293731e-05
2.16887575e-05
2.171475654e-05
2.170266463e-05
2.983790163e-05
2.885123059e-05
9.502698814e-05
3.124360507e-05
3.257540153e-05
2.589933422e-05
2.883134524e-05
2.735592998e-05
0.0001005818778
9.880466748e-05
2.676993625e-05
2.650664341e-05
2.600367867e-05
2.6218807e-05
2.73968228e-05
2.741049634e-05
2.598604131e-05
2.687700214e-05
9.782748177e-05
0.0001008073877
9.443898569e-05
9.606600228e-05
9.959647149e-05
0.0001073793852
0.0001059780748
0.0001000110714
0.0003167852303
0.0001039531671
0.0001076341769
9.980847231e-05
9.426295413e-05
0.0001020026645
0.000320421706
2.408965366e-05
2.401240378e-05
2.382493074e-05
2.392533333e-05
2.322215052e-05
2.341967133e-05
2.371142011e-05
2.357836362e-05
2.165485249e-05
2.1634342e-05
2.158434087e-05
2.161089989e-05
2.143206177e-05
2.147974931e-05
2.155417678e-05
2.152004101e-05
0.000337713298
0.0003116546278
0.0003184105718
0.0003296201673
2.175717398e-05
2.176296598e-05
2.112053483e-05
2.111446479e-05
2.109946995e-05
2.110753729e-05
2.105586999e-05
2.106927867e-05
2.109079282e-05
2.108085469e-05
2.647968695e-05
2.484823704e-05
9.199915696e-05
3.194796541e-05
3.285916471e-05
2.912448002e-05
2.829649447e-05
2.266285093e-05
2.35067785e-05
8.905511626e-05
2.298075227e-05
2.268820586e-05
2.19778903e-05
2.234969793e-05
2.639651929e-05
2.618721683e-05
2.164959396e-05
2.157903354e-05
3.1533868e-05
3.040567941e-05
9.206638657e-05
9.055610181e-05
9.804453236e-05
8.904882736e-05
9.896099491e-05
9.348261098e-05
9.606754459e-05
0.0001046543549
0.0001012568021
9.994006294e-05
0.00010480669
9.93753991e-05
0.0001037108026
9.459759105e-05
9.583211995e-05
0.0001087960735
2.137589111e-05
2.131083584e-05
2.115175138e-05
2.123660284e-05
2.062633662e-05
2.080676056e-05
2.105387583e-05
2.094084086e-05
2.1040733e-05
2.102368387e-05
2.098138827e-05
2.100401602e-05
2.085421451e-05
2.089514024e-05
2.095564601e-05
2.092644596e-05
0.0003182565635
0.0001093691523
0.0001059185729
0.0003196525725
0.0001022651286
0.0001001913633
0.0001049840686
2.112606667e-05
2.113097171e-05
1.707419756e-05
1.707022178e-05
1.705977331e-05
1.706558241e-05
1.70306355e-05
1.703995078e-05
1.705424242e-05
1.704778357e-05
2.299565428e-05
2.160131067e-05
3.112913267e-05
3.040507107e-05
2.79675864e-05
2.872843917e-05
2.676568328e-05
2.213422801e-05
1.914527309e-05
2.04068373e-05
2.929046579e-05
2.987337636e-05
2.037524375e-05
2.003641675e-05
1.902615185e-05
1.959422176e-05
2.025283496e-05
1.306360316e-05
1.823491278e-05
1.702183741e-05
2.814267373e-05
3.129207558e-05
2.829704757e-05
3.055078516e-05
2.774691063e-05
2.612441261e-05
9.059117188e-05
2.926975311e-05
3.01435017e-05
9.012776794e-05
9.058216861e-05
3.148941577e-05
3.063575608e-05
0.00010116458
0.0001006985659
9.653606225e-05
9.36756425e-05
9.195558769e-05
3.153974394e-05
3.21866119e-05
2.786610122e-05
2.950897557e-05
2.966358679e-05
2.983329585e-05
3.079462879e-05
2.080191561e-05
2.074434364e-05
2.059921704e-05
2.067812201e-05
2.00721089e-05
2.023653888e-05
2.050333233e-05
2.038342307e-05
1.702031284e-05
1.700904015e-05
1.698042612e-05
1.699573904e-05
1.689498299e-05
1.692295954e-05
1.69634598e-05
1.69440121e-05
0.0001038862893
0.0001015582428
0.0001003900471
0.0001060012844
0.0001014382714
0.0001084923387
0.000101716046
9.749701437e-05
9.538096432e-05
1.707808257e-05
1.708149855e-05
1.380236733e-05
1.379980573e-05
1.37925556e-05
1.379673106e-05
1.377330016e-05
1.37797416e-05
1.378911615e-05
1.378499659e-05
2.008915033e-05
1.945199716e-05
2.693199335e-05
2.606649375e-05
2.468330554e-05
2.603215648e-05
2.62163805e-05
1.759240718e-05
1.714903996e-05
1.849442033e-05
2.5677254e-05
2.61128906e-05
1.978856401e-05
1.93287051e-05
1.789133131e-05
1.872304603e-05
1.284088138e-05
1.601488659e-05
1.037870493e-05
1.665106445e-05
1.446783461e-05
2.583071919e-05
2.744363795e-05
2.795699701e-05
2.671395576e-05
2.465647125e-05
2.332264536e-05
2.795301568e-05
2.823065243e-05
2.695881223e-05
2.583644766e-05
2.658017099e-05
3.101007292e-05
3.009919502e-05
2.708667851e-05
2.829244031e-05
2.781983724e-05
2.794194825e-05
9.456752053e-05
9.723175834e-05
3.119358963e-05
3.037048713e-05
9.163465505e-05
3.081935662e-05
3.210828131e-05
2.906877102e-05
2.96651163e-05
2.562609896e-05
2.654978191e-05
2.710441895e-05
1.685901492e-05
1.682015268e-05
1.672169253e-05
1.677525686e-05
1.637066754e-05
1.648131434e-05
1.665831164e-05
1.657904561e-05
1.376631062e-05
1.375895603e-05
1.373975376e-05
1.375003504e-05
1.368284569e-05
1.370181844e-05
1.372871861e-05
1.371589357e-05
0.0001008504388
9.772285657e-05
9.735935808e-05
9.581539029e-05
9.796307951e-05
9.477242691e-05
3.162781367e-05
3.094189342e-05
9.446887387e-05
1.380508824e-05
1.380745762e-05
1.115704116e-05
1.115543061e-05
1.115043477e-05
1.115342596e-05
1.113792706e-05
1.114234853e-05
1.114837985e-05
1.114582728e-05
1.606011697e-05
1.573301018e-05
2.297081621e-05
2.176878567e-05
2.148794512e-05
2.536974288e-05
1.331131826e-05
1.486854716e-05
1.412334272e-05
1.510103161e-05
2.450855337e-05
2.095502429e-05
1.61664369e-05
1.582766021e-05
1.472622932e-05
1.536745398e-05
1.081514025e-05
1.272149165e-05
9.280917763e-06
1.378208787e-05
1.218003587e-05
2.523145421e-05
2.464701935e-05
2.189449306e-05
2.307961302e-05
2.338538546e-05
1.943441985e-05
2.460046722e-05
2.82173709e-05
2.32962214e-05
2.465097262e-05
2.152576085e-05
2.779704461e-05
2.6793444e-05
2.346703521e-05
2.785649129e-05
2.515393786e-05
2.525417181e-05
2.987270196e-05
2.847603654e-05
2.915342498e-05
3.142957947e-05
3.199562367e-05
2.8210752e-05
2.828366262e-05
2.893893707e-05
2.753755342e-05
2.733459649e-05
2.802392224e-05
2.695897958e-05
2.440469458e-05
2.441421094e-05
2.241225232e-05
2.457100133e-05
1.365837288e-05
1.363247418e-05
1.356627365e-05
1.360234053e-05
1.333390071e-05
1.340845524e-05
1.352488502e-05
1.347303159e-05
1.113324683e-05
1.112854668e-05
1.111582044e-05
1.112263874e-05
1.107842389e-05
1.109113447e-05
1.110878685e-05
1.110045591e-05
9.330639952e-05
0.0001014371626
3.144822508e-05
3.098336593e-05
9.48169341e-05
3.196450723e-05
3.137805446e-05
3.006428408e-05
2.845127161e-05
2.901679472e-05
2.872441852e-05
2.899733262e-05
3.022743252e-05
2.874347426e-05
1.115893576e-05
1.116056896e-05
9.018412259e-06
9.017438649e-06
9.014033035e-06
9.016163521e-06
9.006120878e-06
9.00912184e-06
9.012887013e-06
9.011377971e-06
1.286598264e-05
1.27253371e-05
1.984556263e-05
1.838453592e-05
1.967306118e-05
2.026648291e-05
1.303469054e-05
1.061779906e-05
1.246545359e-05
1.161064693e-05
1.231615898e-05
1.238827431e-05
1.667616223e-05
1.318712152e-05
1.293942241e-05
1.210003381e-05
1.259197745e-05
9.063101267e-06
1.014459878e-05
8.146615786e-06
1.138286098e-05
1.020663969e-05
1.267922642e-05
2.353572616e-05
1.722494334e-05
1.932964629e-05
1.815953902e-05
1.674880131e-05
2.277238424e-05
2.598042626e-05
1.817170526e-05
1.232206519e-05
1.696790183e-05
2.334851271e-05
2.589382818e-05
1.843326609e-05
2.58555063e-05
2.337958534e-05
2.369644321e-05
2.689757024e-05
2.918099327e-05
2.531971889e-05
2.894550263e-05
2.482534359e-05
2.825192698e-05
2.580320367e-05
2.428961405e-05
2.277937009e-05
2.502097639e-05
2.701596256e-05
2.117732762e-05
1.216328632e-05
1.771491976e-05
2.315290235e-05
1.106203505e-05
1.104510589e-05
1.100120417e-05
1.102518755e-05
1.084879434e-05
1.089906962e-05
1.097467273e-05
1.094128723e-05
9.003039844e-06
9.000131152e-06
8.991856269e-06
8.996294172e-06
8.96778173e-06
8.976141361e-06
8.987512662e-06
8.982226481e-06
3.028661329e-05
2.766003156e-05
2.846151354e-05
2.956977728e-05
3.207414933e-05
3.013741403e-05
3.040392712e-05
2.859294705e-05
2.980136795e-05
3.121044144e-05
2.904737754e-05
2.865304875e-05
2.715850969e-05
2.889349467e-05
2.530928828e-05
2.541998997e-05
2.919021996e-05
2.741668093e-05
2.562751879e-05
9.019719943e-06
9.020834355e-06
7.289529245e-06
7.288979332e-06
7.286694595e-06
7.288199479e-06
7.281897648e-06
7.28390011e-06
7.286137568e-06
7.285317661e-06
1.032487401e-05
1.02928313e-05
1.854020596e-05
1.699272257e-05
1.565491782e-05
1.595459757e-05
1.092273763e-05
9.43576681e-06
1.040900586e-05
9.531260104e-06
1.003563111e-05
1.2293712e-05
1.021419787e-05
1.451347039e-05
1.074370421e-05
1.056428164e-05
9.928324042e-06
1.030380867e-05
7.564799808e-06
8.116215941e-06
7.055019101e-06
9.385032915e-06
8.521716517e-06
1.012495164e-05
1.23111861e-05
1.837553949e-05
1.432790502e-05
1.684467806e-05
1.44830726e-05
1.357108075e-05
1.715216412e-05
1.297420975e-05
1.452551481e-05
1.203567532e-05
1.000383714e-05
1.425503027e-05
1.843194193e-05
1.296481895e-05
1.300383129e-05
1.476787016e-05
1.764032036e-05
1.761867543e-05
2.656883398e-05
2.551010919e-05
2.725690195e-05
2.200884654e-05
2.199809552e-05
2.634585562e-05
2.462509456e-05
2.104128521e-05
1.78461085e-05
2.329684241e-05
1.348309909e-05
1.525929633e-05
1.155162487e-05
9.811601822e-06
1.431924349e-05
1.72694043e-05
8.957062911e-06
8.946320333e-06
8.917807307e-06
8.933456596e-06
8.819240643e-06
8.85314554e-06
8.901280325e-06
8.880305321e-06
7.279921051e-06
7.278213887e-06
7.272989819e-06
7.27579642e-06
7.257980283e-06
7.26332564e-06
7.270444099e-06
7.267211684e-06
2.629808633e-05
2.721029986e-05
2.79897835e-05
2.730964979e-05
3.087629338e-05
2.895397259e-05
2.899530929e-05
2.720011898e-05
3.002229598e-05
2.48711984e-05
2.694448311e-05
2.691680579e-05
2.203536036e-05
2.265471557e-05
2.747879908e-05
2.715634859e-05
2.239533225e-05
7.290420722e-06
7.291169355e-06
5.891955701e-06
5.89168406e-06
5.89018711e-06
5.891238879e-06
5.88748579e-06
5.888788374e-06
5.890005235e-06
5.889634621e-06
8.297370339e-06
8.325436596e-06
1.495394177e-05
1.389979284e-05
1.250701711e-05
1.26317937e-05
9.121320177e-06
8.246862609e-06
8.664252175e-06
7.815221165e-06
8.171333451e-06
1.038222799e-05
9.101340251e-06
1.214650583e-05
8.744431484e-06
8.615985686e-06
8.13724437e-06
8.422260853e-06
6.294365284e-06
6.511278188e-06
6.048271354e-06
7.727058994e-06
7.094225097e-06
8.967213205e-06
1.033980285e-05
1.458795977e-05
1.19136041e-05
1.36118273e-05
1.160315968e-05
1.10206516e-05
1.371880431e-05
1.225623034e-05
1.013735245e-05
1.196051803e-05
1.014841747e-05
8.87275147e-06
1.185445977e-05
1.494027839e-05
1.039766922e-05
1.245607983e-05
1.226489076e-05
1.024339866e-05
1.213858454e-05
1.403680988e-05
1.402242569e-05
1.329651104e-05
2.260361573e-05
1.351109289e-05
1.545981205e-05
1.526020917e-05
1.307667823e-05
1.217215807e-05
1.491868082e-05
1.427423649e-05
1.749962444e-05
1.254718574e-05
1.051977256e-05
1.235548762e-05
9.717846774e-06
8.633328474e-06
1.179959594e-05
1.378268377e-05
7.251220572e-06
7.244720382e-06
7.226789265e-06
7.236708401e-06
7.16439817e-06
7.18724212e-06
7.21696306e-06
7.204286905e-06
5.886268142e-06
5.885359579e-06
5.882214745e-06
5.883909491e-06
5.873336865e-06
5.876605769e-06
5.880859766e-06
5.879002555e-06
2.332786677e-05
2.651933171e-05
2.251485677e-05
1.401777437e-05
2.988377778e-05
1.482471922e-05
2.472171341e-05
2.587851244e-05
1.710208538e-05
2.180845678e-05
1.355388642e-05
1.335980938e-05
1.549553949e-05
1.577616738e-05
1.369302175e-05
1.359336692e-05
1.576768391e-05
5.892551996e-06
5.893043893e-06
4.762246363e-06
4.762154416e-06
4.761208913e-06
4.761931962e-06
4.759899621e-06
4.760714486e-06
4.761258509e-06
4.761174571e-06
6.675732465e-06
6.734179405e-06
1.208714852e-05
1.137370985e-05
1.002579334e-05
1.005062517e-05
7.59598369e-06
7.12006403e-06
7.193688014e-06
6.402162443e-06
6.649401971e-06
8.730871031e-06
7.978100108e-06
1.013591303e-05
7.111583492e-06
7.021013422e-06
6.663230119e-06
6.878258528e-06
5.224173161e-06
5.235716888e-06
5.145327723e-06
6.354817897e-06
5.892074178e-06
7.829876004e-06
8.659433347e-06
1.164156483e-05
9.892920583e-06
1.102914953e-05
9.332131602e-06
8.966187066e-06
1.101950774e-05
1.026562577e-05
8.910575431e-06
9.848797153e-06
8.523584617e-06
7.752530463e-06
9.844110704e-06
1.22430612e-05
9.090719446e-06
1.040212361e-05
1.02852921e-05
9.004546212e-06
9.979538651e-06
1.122382807e-05
1.121446792e-05
1.202958801e-05
1.02970671e-05
1.561815736e-05
1.033393961e-05
1.208639412e-05
1.244025687e-05
1.231774991e-05
1.178819044e-05
1.007269994e-05
1.138821674e-05
9.711493688e-06
1.210331221e-05
1.173033746e-05
1.387961831e-05
1.041074855e-05
9.089358505e-06
1.003640306e-05
8.152776825e-06
7.503022377e-06
9.725272678e-06
1.10498695e-05
5.869321172e-06
5.865704651e-06
5.855005707e-06
5.861005876e-06
5.816821333e-06
5.832176331e-06
5.84962797e-06
5.84245952e-06
4.759199634e-06
4.758814312e-06
4.757074321e-06
4.75801693e-06
4.752304767e-06
4.754154943e-06
4.756495741e-06
4.755549937e-06
1.671776837e-05
1.725593363e-05
1.306775578e-05
1.566666139e-05
1.260024454e-05
1.097902723e-05
1.320962747e-05
1.139731766e-05
1.724573523e-05
1.249290097e-05
1.226299791e-05
1.37059944e-05
1.499857994e-05
1.052422432e-05
1.219633443e-05
1.025675133e-05
1.18976795e-05
1.245507667e-05
1.266741775e-05
1.228093163e-05
1.05212797e-05
1.225083108e-05
1.050888185e-05
1.264325278e-05
4.762634239e-06
4.762946472e-06
3.849090395e-06
3.849111161e-06
3.848548584e-06
3.849034644e-06
3.848147186e-06
3.84862459e-06
3.848734727e-06
3.848827544e-06
5.376108947e-06
5.447119832e-06
9.787341595e-06
9.309328698e-06
8.059633019e-06
8.031024483e-06
6.311730749e-06
6.090749034e-06
5.96057881e-06
5.240643198e-06
5.408337558e-06
7.317461601e-06
6.909563757e-06
8.438325817e-06
5.779963446e-06
5.717370636e-06
5.452223133e-06
5.613331309e-06
4.32724507e-06
4.218085251e-06
4.351054619e-06
5.221504077e-06
4.884440147e-06
6.764596883e-06
7.235565593e-06
9.332522512e-06
8.206058365e-06
8.956881266e-06
7.530603739e-06
7.306069969e-06
8.883794546e-06
8.574694713e-06
7.730947825e-06
8.11015685e-06
7.136533094e-06
6.698692204e-06
8.165220152e-06
1.004112263e-05
7.855925891e-06
8.668096392e-06
8.597915684e-06
7.810505849e-06
8.205964917e-06
9.012427328e-06
9.006542142e-06
1.001401538e-05
8.897306168e-06
1.254942543e-05
8.911049413e-06
1.004902217e-05
1.004980102e-05
9.977696963e-06
9.855330516e-06
8.743640159e-06
9.593468213e-06
8.538978347e-06
9.848155593e-06
9.647528572e-06
1.106845674e-05
8.630968077e-06
7.786134175e-06
8.174994892e-06
6.824626763e-06
6.459925534e-06
8.016963532e-06
8.89361169e-06
4.750169455e-06
4.748486953e-06
4.742683393e-06
4.746026886e-06
4.720589523e-06
4.73086555e-06
4.740219627e-06
4.736664096e-06
3.847796309e-06
3.847745714e-06
3.846942413e-06
3.847383435e-06
3.844885822e-06
3.845779128e-06
3.846858713e-06
3.846507155e-06
1.330974111e-05
1.390613207e-05
1.26047827e-05
1.023826913e-05
1.155203556e-05
1.25828471e-05
1.044088682e-05
9.407737033e-06
1.085449614e-05
9.678051766e-06
1.360518212e-05
1.119622009e-05
9.889276462e-06
1.02054144e-05
1.112242393e-05
1.210817377e-05
9.058774215e-06
1.012385815e-05
8.84033045e-06
9.916296708e-06
1.005212864e-05
1.021286503e-05
1.01925127e-05
9.041695996e-06
1.016112642e-05
9.039267336e-06
1.018177361e-05
3.849332045e-06
3.849519309e-06
3.110995501e-06
3.111084125e-06
3.11078425e-06
3.11110075e-06
3.110958497e-06
3.111205123e-06
3.111044624e-06
3.111240498e-06
4.332834959e-06
4.406085966e-06
7.93683632e-06
7.6214147e-06
6.494462292e-06
6.44062207e-06
5.235265239e-06
5.173420885e-06
4.930755611e-06
4.287239411e-06
4.397207161e-06
6.11633064e-06
5.929756457e-06
7.011789615e-06
4.695279129e-06
4.653205285e-06
4.458660017e-06
4.57840444e-06
3.578534565e-06
3.403626371e-06
3.66213045e-06
4.287130352e-06
4.042980776e-06
5.797044092e-06
6.03464707e-06
7.510834244e-06
6.800807268e-06
7.287907596e-06
6.094044708e-06
5.961055805e-06
7.184441661e-06
7.146456355e-06
6.642173781e-06
6.678617609e-06
5.960215207e-06
5.739248802e-06
6.766267632e-06
8.240904646e-06
6.729143818e-06
7.210525064e-06
7.169139021e-06
6.707314751e-06
6.748586215e-06
7.26294627e-06
7.25945764e-06
8.326419384e-06
7.622320661e-06
1.012446533e-05
7.621356862e-06
8.346126824e-06
8.146157539e-06
8.106614206e-06
8.223526371e-06
7.517709977e-06
8.057888997e-06
7.418218508e-06
8.033304148e-06
7.939849263e-06
8.868768556e-06
7.15064098e-06
6.625524296e-06
6.67436608e-06
5.702587713e-06
5.521864057e-06
6.609671891e-06
7.182124543e-06
3.844018505e-06
3.843607144e-06
3.841069566e-06
3.842635763e-06
3.829560981e-06
3.836389583e-06
3.840475524e-06
3.839248368e-06
3.110838872e-06
3.110994746e-06
3.110803619e-06
3.11091662e-06
3.110499313e-06
3.110759755e-06
3.111024618e-06
3.111050241e-06
1.064395904e-05
1.127404814e-05
1.047142328e-05
8.846203099e-06
9.692109011e-06
1.014110175e-05
8.63746354e-06
7.992780689e-06
8.915017763e-06
8.161197431e-06
1.079339739e-05
9.399891617e-06
8.571501123e-06
8.478880597e-06
9.043036272e-06
9.809347556e-06
7.73627439e-06
8.397500654e-06
7.559034508e-06
8.253447242e-06
8.141410596e-06
8.262956381e-06
8.451492274e-06
7.711125074e-06
8.422407223e-06
7.715296614e-06
8.23017469e-06
3.111135501e-06
3.111237001e-06
3.494209612e-06
3.564036995e-06
6.444090808e-06
6.240740152e-06
5.24361446e-06
5.181109104e-06
4.336144877e-06
4.370028703e-06
4.073460472e-06
3.505554492e-06
3.573999998e-06
5.101263032e-06
5.053218884e-06
5.81751178e-06
3.812573748e-06
3.785416574e-06
3.644398605e-06
3.732556737e-06
2.955528823e-06
2.750023901e-06
3.07081527e-06
3.517845156e-06
3.342366677e-06
4.936683144e-06
5.02550329e-06
6.065054264e-06
5.632131408e-06
5.939429776e-06
4.943310945e-06
4.868902847e-06
5.825592237e-06
5.94547715e-06
5.664079849e-06
5.499889089e-06
4.967725261e-06
4.885061921e-06
5.602678679e-06
6.767329269e-06
5.724821156e-06
5.989565007e-06
5.965583605e-06
5.715992434e-06
5.550721083e-06
5.871146125e-06
5.869299503e-06
6.916623108e-06
6.486961827e-06
8.196579785e-06
6.47703812e-06
6.92573762e-06
6.622221184e-06
6.603366549e-06
6.851183508e-06
6.416337014e-06
6.752105638e-06
6.386060922e-06
6.566850199e-06
6.53809106e-06
7.135618992e-06
5.920957346e-06
5.608587084e-06
5.459969609e-06
4.758062113e-06
4.693471512e-06
5.450071267e-06
5.816533373e-06
3.110466837e-06
3.110865804e-06
3.110460162e-06
3.110860299e-06
3.105806036e-06
3.11029452e-06
3.111028041e-06
3.111260538e-06
8.544850438e-06
9.156601902e-06
8.681294828e-06
7.567593871e-06
8.103251348e-06
8.197286938e-06
7.136110973e-06
6.746162415e-06
7.319257796e-06
6.845020615e-06
8.604548156e-06
7.871550216e-06
7.362108263e-06
7.034879238e-06
7.364124013e-06
7.971071834e-06
6.566596898e-06
6.961425038e-06
6.423568749e-06
6.861689565e-06
6.613831473e-06
6.705509749e-06
7.002624432e-06
6.537452972e-06
6.977502094e-06
6.545790034e-06
6.674007531e-06
2.819340638e-06
2.882930432e-06
5.237391223e-06
5.110994426e-06
4.240646378e-06
4.178733403e-06
3.587262011e-06
3.675346619e-06
3.361614766e-06
2.865249058e-06
2.904175278e-06
4.247191417e-06
4.282639995e-06
4.82066304e-06
3.094782991e-06
3.078349689e-06
2.977677002e-06
3.041835433e-06
2.438432282e-06
2.567318508e-06
2.885191106e-06
2.760403168e-06
4.183224902e-06
4.180010398e-06
4.911579452e-06
4.661534164e-06
4.846936924e-06
4.01792264e-06
3.980411039e-06
4.734346748e-06
4.939169889e-06
4.80188374e-06
4.529291315e-06
4.133726268e-06
4.136652663e-06
4.636269868e-06
5.559903724e-06
4.844489671e-06
4.969634049e-06
4.955885876e-06
4.842273554e-06
4.565945383e-06
4.758473345e-06
4.757738608e-06
5.741050426e-06
5.492141929e-06
6.655610674e-06
5.477140516e-06
5.742968759e-06
5.396632751e-06
5.390613848e-06
5.70059437e-06
5.445012633e-06
5.647088502e-06
5.45895063e-06
5.377744177e-06
5.386319755e-06
5.761575529e-06
4.900544228e-06
4.728165552e-06
4.473975504e-06
3.965247215e-06
3.971598485e-06
4.494369646e-06
4.721949535e-06
6.882189228e-06
7.448015067e-06
7.185283715e-06
6.424702644e-06
6.755959889e-06
6.642571082e-06
5.889416487e-06
5.664871035e-06
6.007250749e-06
5.716816114e-06
6.888456082e-06
6.578055767e-06
6.27919241e-06
5.830347791e-06
6.004902113e-06
6.49403764e-06
5.547046324e-06
5.768151616e-06
5.432160285e-06
5.69936673e-06
5.386721665e-06
5.455586565e-06
5.7985985e-06
5.516591831e-06
5.777965488e-06
5.527357583e-06
5.426903463e-06
4.2602052e-06
4.186311654e-06
3.434186905e-06
3.37762114e-06
2.964917047e-06
3.080400606e-06
2.771754159e-06
3.531081055e-06
3.61383025e-06
3.990597868e-06
3.530826873e-06
3.47331119e-06
3.987096307e-06
3.856342581e-06
3.959799992e-06
3.271257789e-06
3.256469647e-06
3.854763742e-06
4.0983653e-06
4.052239711e-06
3.730049734e-06
3.435172646e-06
3.488633557e-06
3.834582483e-06
4.569721961e-06
4.082277229e-06
4.119526047e-06
4.111573533e-06
4.082943091e-06
3.756207118e-06
3.865172926e-06
3.865177773e-06
4.762244094e-06
4.630805934e-06
5.418074866e-06
4.613309212e-06
4.759408377e-06
4.40703449e-06
4.408698509e-06
4.738312425e-06
4.599868762e-06
4.715556314e-06
4.640779075e-06
4.410621477e-06
4.439173636e-06
4.666237924e-06
4.054505401e-06
3.972820306e-06
3.671172434e-06
3.301315117e-06
3.348809974e-06
3.706577414e-06
3.84112705e-06
5.558422428e-06
6.065814711e-06
5.939104196e-06
5.422314607e-06
5.620051385e-06
5.394010033e-06
4.856302958e-06
4.737719387e-06
4.929172727e-06
4.75855717e-06
5.534454189e-06
5.487878352e-06
5.326285648e-06
4.827700528e-06
4.901993336e-06
5.302299613e-06
4.6679459e-06
4.777532481e-06
4.576039329e-06
4.730368182e-06
4.396871737e-06
4.448296767e-06
4.799196352e-06
4.637897132e-06
4.782947233e-06
4.64987285e-06
4.423084924e-06
3.467721045e-06
3.429293762e-06
2.784217161e-06
2.735049559e-06
2.448666042e-06
2.574605778e-06
2.932318878e-06
3.038918873e-06
3.300746406e-06
2.970784525e-06
2.883754097e-06
3.243213171e-06
3.188976074e-06
3.238026905e-06
2.667085421e-06
2.665833045e-06
3.143545942e-06
3.397442478e-06
3.407133073e-06
3.071894474e-06
2.851581325e-06
2.932543602e-06
3.170184638e-06
3.757125124e-06
3.428434757e-06
3.412237178e-06
3.407392802e-06
3.429907314e-06
3.090295385e-06
3.145379733e-06
3.145861227e-06
3.948256137e-06
3.891749718e-06
4.420128985e-06
3.873440544e-06
3.942410253e-06
3.605226429e-06
3.611228971e-06
3.93512811e-06
3.871922905e-06
3.932686638e-06
3.928043078e-06
3.622015903e-06
3.659764911e-06
3.788867663e-06
3.353529757e-06
3.329300729e-06
3.015958158e-06
2.746357421e-06
2.815613595e-06
3.057100027e-06
3.129923799e-06
4.499757149e-06
4.945250254e-06
4.903714116e-06
4.555169269e-06
4.666671299e-06
4.387824545e-06
4.001592735e-06
3.949618608e-06
4.043736466e-06
3.950330408e-06
4.460162402e-06
4.572113168e-06
4.498439722e-06
3.994529516e-06
4.005350662e-06
4.33727872e-06
3.916188919e-06
3.955761973e-06
3.842934192e-06
3.923698341e-06
3.595532676e-06
3.6336291e-06
3.970423451e-06
3.8875916e-06
3.958129552e-06
3.899941495e-06
3.612016814e-06
2.824248585e-06
2.809420628e-06
2.432796966e-06
2.548367831e-06
2.728319603e-06
2.493221745e-06
2.392685709e-06
2.642621088e-06
2.636252863e-06
2.649844639e-06
2.56692526e-06
2.814202638e-06
2.856338161e-06
2.529908818e-06
2.365051157e-06
2.458630638e-06
2.62000072e-06
3.089873724e-06
2.871547358e-06
2.824629373e-06
2.821316254e-06
2.872759261e-06
2.542594504e-06
2.563589275e-06
2.564364276e-06
3.27199989e-06
3.262016078e-06
3.612529734e-06
3.243957957e-06
3.264380347e-06
2.953652292e-06
2.961853186e-06
3.265823847e-06
3.249766405e-06
3.276383426e-06
3.313191806e-06
2.977570932e-06
3.018019949e-06
3.083152208e-06
2.773072121e-06
2.784042113e-06
2.480113988e-06
2.283195871e-06
2.361843369e-06
2.521587572e-06
2.55402606e-06
3.649850584e-06
4.035160019e-06
4.045242981e-06
3.812680512e-06
3.869345037e-06
3.574562327e-06
3.295420224e-06
3.2841789e-06
3.316800749e-06
3.272346439e-06
3.603648118e-06
3.804910959e-06
3.786139296e-06
3.303151074e-06
3.275230497e-06
3.553420866e-06
3.277430111e-06
3.274475141e-06
3.219242098e-06
3.252947957e-06
2.944800191e-06
2.9727253e-06
3.283677976e-06
3.250877809e-06
3.274774298e-06
3.263043417e-06
2.954543964e-06
2.329608979e-06
2.388932384e-06
2.541704558e-06
2.399875326e-06
2.337028172e-06
2.334361192e-06
2.40035727e-06
2.710624565e-06
2.728348131e-06
2.956982312e-06
2.711183993e-06
2.702097537e-06
2.422830073e-06
2.431888282e-06
2.708819343e-06
2.721223308e-06
2.72728783e-06
2.786748013e-06
2.449959834e-06
2.489370815e-06
2.513467725e-06
2.292634589e-06
2.324033914e-06
2.96530543e-06
3.294902137e-06
3.334652035e-06
3.181882949e-06
3.204430325e-06
2.915587436e-06
2.71260082e-06
2.725228122e-06
2.720178876e-06
2.706042154e-06
2.917899976e-06
3.16355718e-06
3.177780042e-06
2.730083975e-06
2.679909858e-06
2.915032775e-06
2.737406554e-06
2.709938786e-06
2.69133615e-06
2.695747254e-06
2.414974948e-06
2.435161975e-06
2.714976959e-06
2.713184291e-06
2.70887316e-06
2.724808162e-06
2.420091397e-06
2.244921758e-06
2.278035532e-06
2.423479316e-06
2.262122927e-06
2.236082471e-06
2.24576999e-06
2.274335077e-06
2.268635798e-06
2.338634238e-06
2.412421553e-06
2.692031276e-06
2.747264863e-06
2.649212303e-06
2.651207065e-06
2.380505485e-06
2.232009888e-06
2.257647792e-06
2.230635687e-06
2.234618602e-06
2.366904828e-06
2.628344994e-06
2.661187316e-06
2.255521284e-06
2.193959965e-06
2.393949645e-06
2.2826707e-06
2.242335286e-06
2.246311183e-06
2.233234638e-06
2.244271822e-06
2.260863346e-06
2.240409995e-06
2.271731306e-06
2.200539039e-06
2.262254084e-06
2.201535651e-06
2.191763439e-06
2.182344173e-06
2.224514661e-06
0.001075533306
0.001071156415
0.00110287563
0.001066402563
0.001098902015
0.001126334292
0.001094357787
0.001061289803
0.001122697293
0.001145979065
0.001118408445
0.001089084952
0.001055148788
0.001142682062
0.001162007402
0.001113330797
0.001138740236
0.001082737237
0.001046897212
0.001159065333
0.001174679477
0.001134050207
0.001107307182
0.001155524255
0.001075140664
0.001037401393
0.001172090417
0.001184274006
0.001128503852
0.001151300855
0.001100216096
0.00116895795
0.001066298086
0.00102720444
0.001182017979
0.001191051128
0.001146310758
0.001122006626
0.001165218868
0.001091971492
0.001179260036
0.001055991177
0.001013154336
0.001189100707
0.001195215072
0.001140479073
0.001160809392
0.001114509161
0.001175961967
0.001082689914
0.00118666974
0.001045327026
0.001004711652
0.001193546736
0.001202108082
0.001133744383
0.001155668105
0.001172109297
0.00110598996
0.001183671801
0.001072456364
0.001191420979
0.001034294634
0.0009967882911
0.001201395127
0.00119726026
0.001149733268
0.001126046695
0.001167661518
0.001180227036
0.001096375481
0.001188647298
0.001060824101
0.001200691478
0.00101893124
0.001197160064
0.001193489008