/*--------------------------------*- C++ -*----------------------------------*\
  =========                 |
  \\      /  F ield         | OpenFOAM: The Open Source CFD Toolbox
   \\    /   O peration     | Website:  https://openfoam.org
    \\  /    A nd           | Version:  8
     \\/     M anipulation  |
\*---------------------------------------------------------------------------*/






FoamFile
{
    version     2.0;
    format      ascii;
    class       volScalarField;
    location    "0";
    object      V;
}
// * * * * * * * * * * * * * * * * * * * * * * * * * * * * * * * * * * * * * //

dimensions      [0 3 0 0 0 0 0];


internalField   nonuniform List<scalar> 
25404
(
2.439691362e-06
2.242566958e-06
2.990523173e-06
2.723739237e-06
2.272100897e-06
3.670822146e-06
3.307730613e-06
2.737728899e-06
2.432743383e-06
4.513398914e-06
4.016294961e-06
3.293658233e-06
2.982489645e-06
2.249475445e-06
5.560411444e-06
4.875665546e-06
3.954881805e-06
3.66159618e-06
2.732463898e-06
2.282085942e-06
6.866523034e-06
5.917492565e-06
4.737569283e-06
4.502903148e-06
3.318745162e-06
2.750399265e-06
2.436156549e-06
8.503185483e-06
7.179771134e-06
5.658371479e-06
5.548642328e-06
4.030205569e-06
3.309626159e-06
2.986682069e-06
2.240898494e-06
1.056466706e-05
8.708100964e-06
6.733094996e-06
6.853567555e-06
4.893265891e-06
3.974863978e-06
3.666501005e-06
2.721990843e-06
2.272390691e-06
1.317653839e-05
1.055699265e-05
7.974484878e-06
8.489325242e-06
5.939765875e-06
4.762376099e-06
4.508268544e-06
3.305817805e-06
2.738015181e-06
2.432884326e-06
1.650767509e-05
1.279131636e-05
9.388502953e-06
1.055047758e-05
7.208010874e-06
5.688862036e-06
5.553887315e-06
4.014043553e-06
3.293800029e-06
2.98239122e-06
2.243029468e-06
2.404730183e-05
1.44764572e-05
1.096839118e-05
1.316307273e-05
8.743974464e-06
6.770162552e-06
6.85760427e-06
4.872753724e-06
3.954616397e-06
3.661045888e-06
2.723930875e-06
2.280420477e-06
2.916674798e-05
2.702913045e-05
2.37473666e-05
1.649673098e-05
1.060267355e-05
8.018910727e-06
8.490236404e-06
5.913317972e-06
4.736437261e-06
4.501542127e-06
3.307529105e-06
2.746362337e-06
2.435648868e-06
2.728109955e-05
3.101184455e-05
3.048891457e-05
2.883532012e-05
1.284965578e-05
9.440768724e-06
1.054502858e-05
7.173328521e-06
5.655584544e-06
5.545916276e-06
4.015566196e-06
3.302291572e-06
2.982941348e-06
2.241134208e-06
2.913663396e-05
3.062516119e-05
3.069441212e-05
3.350164539e-05
2.709697043e-05
1.441656081e-05
1.102835537e-05
1.314601334e-05
8.697708008e-06
6.72738247e-06
6.848597263e-06
4.874269219e-06
3.963039748e-06
3.658007068e-06
2.718233147e-06
2.272354561e-06
3.066022798e-05
3.230050672e-05
0.0001000142611
3.261829726e-05
0.0001018929896
3.094048832e-05
2.402555435e-05
1.645968502e-05
1.053990917e-05
7.963804484e-06
8.480754947e-06
5.915234207e-06
4.744520121e-06
4.492897505e-06
3.296159453e-06
2.733112573e-06
2.431382397e-06
3.082024561e-05
3.369064586e-05
9.986580562e-05
0.0001076005233
0.0001071759573
3.023549162e-05
2.90366177e-05
1.276318364e-05
9.369610223e-06
1.053622651e-05
7.176485537e-06
5.663055042e-06
5.528698015e-06
3.995866314e-06
3.281830497e-06
2.973781139e-06
2.247921757e-06
9.960191335e-05
3.294645908e-05
0.0001033888614
0.0001109587504
9.913702683e-05
2.700695356e-05
3.167381731e-05
1.441136834e-05
1.093621668e-05
1.313996695e-05
8.703635989e-06
6.733987906e-06
6.818511745e-06
4.842474302e-06
3.932631227e-06
3.64180116e-06
2.722615861e-06
2.284026642e-06
0.0001012754701
0.0001058825784
0.0003227571733
0.0003254975985
0.0001074993282
2.357220295e-05
2.87446221e-05
3.320488718e-05
1.645995203e-05
1.055125127e-05
7.969432536e-06
8.431493558e-06
5.866023718e-06
4.700485717e-06
4.466649583e-06
3.296715361e-06
2.743232972e-06
2.438109137e-06
3.226732499e-05
9.884340575e-05
0.0003391908334
0.0003154184814
0.0003353818478
0.0001100379462
2.853539227e-05
3.01854058e-05
1.278436982e-05
9.37448174e-06
1.045860596e-05
7.102303389e-06
5.600446832e-06
5.488251921e-06
3.990614886e-06
3.289102275e-06
2.976738668e-06
2.243515006e-06
9.822430975e-05
3.028723498e-05
0.0001019190179
0.0003229955593
0.0003073767347
0.0001053089457
0.0003446478533
1.42773986e-05
2.671568572e-05
1.094121063e-05
1.302052743e-05
8.593779777e-06
6.646181084e-06
6.758058642e-06
4.828710471e-06
3.93522045e-06
3.638469059e-06
2.712058379e-06
2.281651143e-06
0.0001050326615
2.994012013e-05
3.146324649e-05
3.050112888e-05
0.0003156499962
0.0009793853902
0.0003253906285
0.0003319708559
2.372898184e-05
1.627896309e-05
1.039049572e-05
7.84753845e-06
8.34292084e-06
5.840058502e-06
4.695879651e-06
4.453312533e-06
3.277219515e-06
2.734185616e-06
2.45973251e-06
9.553224015e-05
3.175292831e-05
3.260310047e-05
2.659920798e-05
2.823116978e-05
2.860654444e-05
0.0001035954636
0.0003106263309
0.0009507641649
0.0003458999979
1.255102243e-05
9.206584752e-06
1.033046466e-05
7.059138443e-06
5.585211936e-06
5.459448879e-06
3.958305454e-06
3.270433674e-06
2.995272335e-06
2.283923722e-06
9.546596663e-05
2.960928498e-05
2.954601895e-05
2.307023555e-05
2.781499168e-05
1.415090385e-05
0.0001082514232
9.733144283e-05
0.0001101788778
0.0003299542067
0.0009874082207
0.0003468916194
1.071138721e-05
1.283662999e-05
8.526639777e-06
6.615675244e-06
6.70578302e-06
4.778223844e-06
3.902947039e-06
3.650832395e-06
2.754113098e-06
2.352191526e-06
2.856617722e-05
2.989329852e-05
2.942791542e-05
2.595388432e-05
1.601627099e-05
1.384999634e-05
9.572792855e-05
3.050243778e-05
3.128865291e-05
0.0001118742459
0.0001020271599
0.0001072776382
0.0003196912223
0.0009500777526
0.0003295486638
0.0003456437938
1.029026001e-05
7.795553331e-06
8.25544666e-06
5.763960282e-06
4.644655992e-06
4.454882013e-06
3.318931266e-06
2.813746247e-06
2.494004771e-06
2.519139106e-05
2.668086436e-05
2.736576139e-05
2.28910064e-05
1.240539238e-05
1.0589145e-05
9.303152859e-05
2.836451231e-05
2.809366326e-05
0.0001037551385
9.363654596e-05
0.0003215668571
0.0001036312422
0.000329460192
0.0009875213219
0.0009765763922
0.0003233448589
9.124891424e-06
1.019064184e-05
6.947123818e-06
5.507881761e-06
5.443333089e-06
3.996394947e-06
3.358296799e-06
3.03732931e-06
2.50815343e-06
2.178876645e-05
2.569336671e-05
1.351701149e-05
1.568470898e-05
2.838437871e-05
3.033680287e-05
2.830144882e-05
2.407207445e-05
0.000100263469
3.229939816e-05
3.134652907e-05
0.0003219347575
0.0001049936777
0.0001009982548
0.0001031976948
0.0009980012843
0.0009440479603
0.0003300875796
0.0003182660025
0.0003258605983
1.261934457e-05
8.36438141e-06
6.502725503e-06
6.661789589e-06
4.807451545e-06
3.997071234e-06
3.699894794e-06
3.09240586e-06
2.288764297e-06
1.529053062e-05
1.284098523e-05
1.207496121e-05
1.027621825e-05
2.892029715e-05
2.619632181e-05
2.511481505e-05
1.919664529e-05
3.293416865e-05
3.215698511e-05
2.899537962e-05
2.782226531e-05
0.0001090626917
0.0001051470304
9.423874761e-05
9.757560861e-05
9.604903289e-05
0.001001385443
0.0009549685853
0.0003445233688
0.0003433131618
0.0003101450776
0.0003036126566
0.0003110177089
1.005781888e-05
7.634355357e-06
8.168555219e-06
5.776191483e-06
4.740829357e-06
4.508288388e-06
3.819792206e-06
2.783703922e-06
2.321537911e-06
1.181641766e-05
1.237010166e-05
1.011129237e-05
8.898788441e-06
1.440891726e-05
2.283628364e-05
1.83346197e-05
1.490539119e-05
2.93166211e-05
2.973726071e-05
2.473865533e-05
2.70601363e-05
9.977531373e-05
9.993840957e-05
9.187234293e-05
3.166738575e-05
3.060670875e-05
3.021720864e-05
2.81098496e-05
0.001002963251
0.0009881478679
0.0003502606427
0.0003474602219
0.0003149713105
0.0003269422232
0.0001103244421
0.0001081010443
0.0001052940212
0.0001070112984
0.0001014332137
9.311693021e-05
1.003877322e-05
6.929938926e-06
5.598471187e-06
5.495177641e-06
4.728692727e-06
3.385387016e-06
2.795082178e-06
2.46322177e-06
9.916569635e-06
8.858492593e-06
1.325130277e-05
1.111835364e-05
1.629832073e-05
1.445445436e-05
1.219108147e-05
2.655805096e-05
2.956175809e-05
2.1514587e-05
1.334307761e-05
9.190253249e-05
0.0001032971726
2.868431223e-05
2.729853684e-05
2.841957068e-05
2.854068091e-05
2.742311996e-05
2.582643092e-05
0.001003583871
0.00094263333
0.0003304447323
0.0003493015003
0.0003302012687
0.0003275301033
0.0003129176884
0.0001105701686
0.0001054724402
0.000101212962
9.92251637e-05
9.79500465e-05
9.463594346e-05
9.175867485e-05
9.287995456e-05
8.299107759e-06
6.574802944e-06
6.700853583e-06
5.869253927e-06
4.116676479e-06
3.359939946e-06
3.011557109e-06
2.257204945e-06
7.666904889e-06
1.091402921e-05
9.526518202e-06
1.240572697e-05
1.304106117e-05
1.146049816e-05
9.979597524e-06
2.552802093e-05
2.364536916e-05
1.539673888e-05
1.051311366e-05
3.07677158e-05
3.199956943e-05
3.111898666e-05
3.200140561e-05
2.544304981e-05
2.809669094e-05
2.350619713e-05
2.499747166e-05
2.74048265e-05
2.387042393e-05
0.00101150444
0.0009718783083
0.0009657182244
0.0003239200407
0.0003318640176
0.0003111448506
0.0003056542746
0.0001011287865
9.692576805e-05
0.0001010725786
0.0001020183374
9.274319321e-05
8.962338349e-05
3.15715694e-05
3.043604383e-05
9.115871806e-05
3.139822104e-05
3.048620274e-05
2.780921045e-05
2.888592343e-05
2.897365411e-05
8.17509755e-06
7.307622729e-06
5.005244662e-06
4.031143693e-06
3.687189638e-06
2.728610486e-06
2.300580438e-06
8.985331702e-06
8.099543205e-06
1.027147085e-05
1.048137123e-05
9.131872896e-06
1.255905345e-05
1.839020739e-05
1.24178442e-05
1.164146392e-05
9.045629925e-06
2.730271739e-05
2.839470399e-05
2.855642664e-05
2.357335339e-05
2.554307208e-05
1.83616601e-05
2.215203495e-05
1.384288353e-05
1.774097385e-05
0.0009732546477
0.001015716475
0.0009249384746
0.0003221626218
0.0003045940043
0.0003437205748
0.0003174122474
0.0001102582023
0.0001092766797
0.000106925546
0.0001079687996
9.235569921e-05
9.943548308e-05
8.967519632e-05
9.795420565e-05
3.161499161e-05
3.089876046e-05
2.949072401e-05
3.029490563e-05
2.806140599e-05
2.833847916e-05
2.80094076e-05
2.708323432e-05
2.805596483e-05
2.718127559e-05
2.895329542e-05
2.409421113e-05
2.564652322e-05
6.084557957e-06
4.824838984e-06
4.522068173e-06
3.298331191e-06
2.754168067e-06
2.464434797e-06
7.395018437e-06
6.845027714e-06
8.502611404e-06
8.456630385e-06
9.877420893e-06
1.447708708e-05
1.005461463e-05
9.746689742e-06
7.726647279e-06
2.63039928e-05
2.382809174e-05
2.584630983e-05
1.77308892e-05
1.265781195e-05
1.460649075e-05
1.555271932e-05
1.276640171e-05
1.072213932e-05
1.404039601e-05
0.0009297216517
0.000977293156
0.001019224463
0.0003336824131
0.0003335828396
0.0002989438314
0.0003107898553
0.000107740311
0.000113069083
0.0001128310162
0.0001143979402
0.0001006636962
9.66147442e-05
9.597843987e-05
0.0001012215499
3.129669575e-05
3.050658342e-05
9.139766165e-05
2.948190124e-05
3.020307923e-05
3.20722412e-05
3.119257341e-05
2.773452149e-05
2.688765973e-05
2.588365952e-05
2.668727981e-05
2.53849886e-05
2.82919837e-05
2.462610682e-05
2.331625258e-05
2.356562307e-05
2.62368255e-05
2.674511236e-05
1.882229638e-05
2.377718814e-05
5.757593202e-06
5.5571942e-06
3.98679482e-06
3.29213082e-06
2.997035255e-06
2.265585463e-06
7.037175144e-06
6.84563808e-06
8.656288746e-06
1.186127405e-05
8.16875657e-06
8.147539702e-06
6.562646117e-06
1.31576016e-05
1.88025697e-05
2.427358845e-05
1.409580568e-05
1.259669942e-05
9.948401827e-06
1.172256812e-05
1.200104284e-05
1.256873296e-05
1.0560675e-05
9.251649489e-06
1.117546854e-05
0.0003386756499
0.0003373713498
0.0009353312198
0.0009809319263
0.0003103232824
0.0003049230676
0.000104153772
0.0001032509718
0.0001025282763
9.31995909e-05
9.954843231e-05
0.0001047430512
0.0001023421066
0.0001038475437
9.022469541e-05
9.22053129e-05
3.180585865e-05
3.258986499e-05
3.138532772e-05
3.278284426e-05
2.722204019e-05
2.645712719e-05
2.812572191e-05
2.868083955e-05
2.642257667e-05
2.602366304e-05
2.646112943e-05
2.854552599e-05
2.483930302e-05
2.314807715e-05
2.461996957e-05
2.151716055e-05
2.386135726e-05
2.610234078e-05
2.274261253e-05
1.821145038e-05
1.861695784e-05
1.313281649e-05
1.336583806e-05
1.504932239e-05
1.790129576e-05
4.818627996e-06
3.927767887e-06
3.649343721e-06
2.724733037e-06
2.357871135e-06
5.823509623e-06
7.503191617e-06
9.731590239e-06
6.655953398e-06
6.802053387e-06
5.549056036e-06
1.056614686e-05
1.52276717e-05
1.806105622e-05
1.126089324e-05
1.051595704e-05
8.746701658e-06
9.8510863e-06
9.86342435e-06
1.019121569e-05
8.7336195e-06
7.916068526e-06
8.93999004e-06
0.0003165870612
0.0003409903135
0.0003137637384
0.0003418665075
0.000939643399
0.0001082996217
0.0001074090203
0.0001053498497
0.000106268392
9.418038472e-05
9.236783572e-05
0.0001062883684
9.128495628e-05
8.956481714e-05
9.769800693e-05
9.256727051e-05
9.511764429e-05
2.973253877e-05
2.939128132e-05
2.672355517e-05
2.813141498e-05
2.903307474e-05
2.808374518e-05
2.877810943e-05
2.919465941e-05
2.380538324e-05
2.220073204e-05
2.499775435e-05
2.834811102e-05
2.366493764e-05
2.485743597e-05
2.128099706e-05
2.61293964e-05
2.366187555e-05
1.933008991e-05
1.224541191e-05
1.690039882e-05
1.786209449e-05
1.303423801e-05
1.725068368e-05
1.467855767e-05
1.514446837e-05
1.054351261e-05
1.264967126e-05
1.260648269e-05
1.047231416e-05
1.23423454e-05
1.42251537e-05
4.675262742e-06
4.450321258e-06
3.275662886e-06
2.809024553e-06
2.494111174e-06
6.449371017e-06
7.993588901e-06
5.436789823e-06
5.672824455e-06
9.238582205e-06
1.246083634e-05
1.43362909e-05
9.034286831e-06
8.757989751e-06
7.591977403e-06
8.254314997e-06
8.108674843e-06
8.287046861e-06
7.221023734e-06
6.729401486e-06
7.183088952e-06
0.0001105554716
0.0001110009039
0.0003184321555
0.0001092859662
0.0001099484822
0.0003197810326
0.0003430828202
0.0003435853495
9.786520269e-05
9.680003919e-05
9.499792631e-05
9.574683807e-05
3.154448011e-05
3.159134507e-05
3.086789219e-05
3.150444058e-05
3.154061052e-05
3.308914839e-05
2.62149592e-05
2.875985699e-05
2.773955518e-05
3.018429975e-05
2.925288048e-05
3.307425924e-05
3.363243063e-05
3.015737804e-05
3.098361317e-05
3.245342591e-05
3.166134405e-05
2.519221852e-05
2.53140304e-05
2.443245958e-05
2.812845329e-05
2.496248468e-05
2.519595291e-05
2.602484982e-05
2.653086748e-05
2.038147219e-05
1.859756924e-05
2.371749488e-05
2.21954566e-05
1.969573799e-05
1.249206527e-05
1.67958453e-05
2.550036399e-05
1.849971187e-05
1.692327286e-05
9.998373055e-06
1.201801857e-05
1.427940925e-05
1.419928571e-05
1.244130592e-05
1.028935737e-05
1.378968535e-05
1.207684897e-05
1.24006214e-05
9.214279315e-06
1.055083188e-05
1.053029711e-05
9.175257768e-06
1.012504071e-05
1.135880036e-05
3.936116847e-06
3.339371618e-06
3.024526112e-06
2.520559755e-06
5.507578412e-06
6.572390919e-06
4.727006578e-06
7.979920326e-06
1.020417197e-05
1.143618676e-05
7.274316342e-06
7.279901085e-06
6.526271656e-06
6.900174933e-06
6.667558841e-06
6.755029318e-06
5.96930505e-06
5.691532463e-06
5.793322723e-06
9.999219844e-05
0.0001113587634
0.0001004030569
0.0001116630348
9.875048503e-05
9.945917905e-05
0.0001120766172
0.000320640086
0.0001118586939
0.0003212722998
3.240307062e-05
3.216176392e-05
3.172042922e-05
3.202120849e-05
3.125850904e-05
3.12384326e-05
3.157066268e-05
3.126177966e-05
2.767088956e-05
2.834296446e-05
2.769869379e-05
2.843732577e-05
2.919944761e-05
2.759385592e-05
2.335559937e-05
2.413183356e-05
2.632391023e-05
2.52168545e-05
2.905033491e-05
2.925159629e-05
2.581817684e-05
2.673347366e-05
2.84793551e-05
2.769011251e-05
2.086381292e-05
2.024755277e-05
2.301274984e-05
2.324674261e-05
2.383300069e-05
2.41730957e-05
2.52643116e-05
2.196142577e-05
1.820665129e-05
1.672658571e-05
1.825028122e-05
1.744500754e-05
1.68530978e-05
1.234328197e-05
1.016159274e-05
1.433701321e-05
1.28326971e-05
1.468135761e-05
1.244445141e-05
1.366050098e-05
8.836755509e-06
1.01094114e-05
1.185156518e-05
1.13428113e-05
1.040600592e-05
9.032207375e-06
1.10727014e-05
9.938494549e-06
1.016143379e-05
7.956574066e-06
8.780274521e-06
8.771957161e-06
7.935245177e-06
8.30795622e-06
9.108017968e-06
3.959405278e-06
3.6691924e-06
3.093198915e-06
2.300382647e-06
4.679284555e-06
5.408279714e-06
6.829632319e-06
8.361267003e-06
9.161891116e-06
5.875349226e-06
6.041873536e-06
5.568669284e-06
5.757261534e-06
5.483560629e-06
5.517559458e-06
4.933828544e-06
4.794325353e-06
4.687613951e-06
3.295104338e-05
3.307346564e-05
0.0001007186745
3.31926172e-05
3.309108699e-05
0.0001009600558
3.250771254e-05
3.269558764e-05
3.291251021e-05
3.27626389e-05
0.000112182727
0.0001012957215
0.0001123444474
0.0001011514408
0.0001125189119
0.0001123943686
2.790627354e-05
2.774688682e-05
2.733003146e-05
2.754628406e-05
2.670575289e-05
2.664562198e-05
2.707655572e-05
2.683703647e-05
2.221260975e-05
2.708402082e-05
2.418257804e-05
2.747642383e-05
2.55794621e-05
2.256337589e-05
2.050849981e-05
2.136590332e-05
2.307485646e-05
2.219588584e-05
2.595920309e-05
2.586758325e-05
2.175760374e-05
2.284569427e-05
2.552483691e-05
2.437420252e-05
1.755899197e-05
1.603528988e-05
1.928018781e-05
1.764123435e-05
1.199630673e-05
1.910172841e-05
1.276260863e-05
1.718996862e-05
1.461677781e-05
1.365250096e-05
1.455017352e-05
1.444358422e-05
1.36520226e-05
1.041855659e-05
9.054161647e-06
1.200134051e-05
1.020988308e-05
1.171317649e-05
1.045716098e-05
1.106024279e-05
7.70680805e-06
8.479114873e-06
9.829228616e-06
9.09931879e-06
8.679951879e-06
7.826889851e-06
8.925651768e-06
8.180276044e-06
8.331695932e-06
6.808542722e-06
7.293484476e-06
7.291164034e-06
6.796330871e-06
6.818261251e-06
7.329437642e-06
4.453394194e-06
3.803408129e-06
2.784148781e-06
2.350532012e-06
5.803966547e-06
6.854642625e-06
7.366866059e-06
4.75787436e-06
5.008074443e-06
4.724152022e-06
4.796254807e-06
4.510499481e-06
4.514600622e-06
4.077484512e-06
4.025533673e-06
2.841994018e-05
2.847675183e-05
3.319658567e-05
3.328142289e-05
2.857423686e-05
2.853352803e-05
3.334815638e-05
3.327662918e-05
2.805021733e-05
2.816146005e-05
2.834374734e-05
2.826465651e-05
0.0001014165819
3.343704491e-05
3.338435024e-05
0.0001015055974
3.333738758e-05
3.339839803e-05
0.0001016410481
0.0001015845251
2.397614033e-05
2.383394388e-05
2.34331705e-05
2.365596054e-05
2.221756798e-05
2.250835624e-05
2.316424496e-05
2.284895732e-05
1.753664163e-05
1.351490091e-05
2.127512138e-05
2.127782124e-05
2.184692837e-05
1.957230178e-05
1.912499078e-05
1.989200076e-05
2.091293022e-05
2.048353478e-05
2.504970237e-05
2.108339229e-05
1.874162629e-05
1.983645063e-05
2.465200839e-05
2.118396639e-05
1.619832884e-05
1.381606735e-05
1.649901431e-05
1.410479957e-05
1.176925664e-05
9.707271306e-06
1.512781175e-05
1.252819049e-05
1.018772976e-05
1.428925567e-05
1.177406403e-05
1.115505383e-05
1.165234306e-05
1.200068945e-05
1.108299024e-05
8.756430162e-06
7.937228976e-06
1.00192666e-05
9.033708457e-06
9.388550006e-06
8.761663411e-06
8.977997082e-06
6.654387757e-06
7.095024691e-06
8.147046517e-06
7.326055554e-06
7.224346401e-06
6.716870821e-06
7.218947025e-06
6.734129827e-06
6.834926807e-06
5.785655038e-06
6.049497532e-06
6.04960711e-06
5.77765111e-06
5.596553109e-06
5.916172103e-06
3.369451132e-06
2.81740404e-06
2.492475723e-06
4.905213659e-06
5.621851231e-06
5.94205752e-06
3.861450337e-06
4.146916653e-06
3.989469678e-06
3.990665168e-06
3.710586695e-06
3.699326137e-06
3.371258326e-06
2.439198217e-05
2.44426151e-05
2.861697649e-05
2.864623963e-05
2.452201491e-05
2.448515163e-05
2.869945012e-05
2.867859789e-05
2.40895336e-05
2.418489336e-05
2.43338178e-05
2.426487694e-05
3.342093211e-05
3.346670986e-05
2.876948956e-05
2.875846481e-05
3.349019599e-05
3.345018158e-05
2.87241133e-05
2.873915733e-05
3.35232665e-05
3.349236856e-05
3.347331307e-05
3.35084117e-05
2.127879622e-05
2.116130744e-05
2.076326468e-05
2.099571668e-05
1.873014428e-05
1.949643771e-05
2.044846554e-05
2.003520427e-05
1.505487069e-05
1.344335063e-05
1.084605446e-05
1.690278482e-05
1.672351991e-05
1.841697959e-05
1.81863043e-05
1.565970481e-05
1.622765597e-05
1.680036084e-05
1.660037126e-05
1.275619565e-05
1.689846893e-05
1.763973016e-05
1.868713061e-05
1.985066131e-05
1.948438664e-05
1.339766191e-05
1.167172521e-05
1.337107149e-05
1.132969262e-05
9.974688203e-06
8.706563114e-06
1.204641014e-05
1.049381426e-05
8.987090311e-06
1.186003017e-05
9.511144533e-06
9.122384696e-06
9.367712802e-06
9.958395969e-06
9.013783401e-06
7.334492903e-06
6.875003201e-06
8.346504802e-06
7.881993847e-06
7.55554941e-06
7.323877265e-06
7.303597316e-06
5.701700853e-06
5.925580434e-06
6.749403206e-06
5.916592045e-06
6.002222416e-06
5.721514574e-06
5.85519471e-06
5.544349448e-06
5.609422544e-06
4.889742278e-06
5.011675348e-06
5.012273658e-06
4.883284405e-06
4.594347782e-06
4.78772004e-06
3.034978295e-06
2.286218605e-06
4.127635739e-06
4.612367902e-06
4.805492023e-06
3.139723883e-06
3.430983466e-06
3.356828806e-06
3.316985605e-06
3.052860643e-06
2.162751147e-05
2.166947126e-05
2.455247434e-05
2.457878853e-05
2.173675093e-05
2.170603318e-05
2.461902652e-05
2.460023622e-05
2.137397958e-05
2.145409793e-05
2.157882227e-05
2.152177632e-05
2.878483824e-05
2.879296397e-05
2.46715039e-05
2.466062993e-05
2.881139659e-05
2.880536972e-05
2.46346347e-05
2.464881596e-05
2.883772823e-05
2.883434466e-05
2.882146004e-05
2.882596213e-05
2.069689836e-05
2.057587246e-05
2.016585264e-05
2.043376878e-05
1.723702801e-05
1.843278487e-05
1.974577477e-05
1.920595956e-05
1.260959489e-05
1.125359325e-05
9.638886482e-06
1.346340865e-05
1.320971253e-05
1.686147308e-05
1.49311692e-05
1.280199128e-05
1.321515188e-05
1.350267197e-05
1.34395234e-05
1.274004833e-05
1.040112925e-05
1.457704647e-05
1.441757156e-05
1.510097349e-05
1.567492274e-05
1.555017967e-05
1.107144755e-05
9.823381516e-06
1.08653364e-05
9.137290906e-06
8.42091368e-06
7.681917264e-06
9.638698392e-06
8.77160309e-06
7.828989888e-06
9.838885319e-06
7.701534043e-06
7.465477552e-06
7.555874494e-06
8.255173117e-06
7.342055729e-06
6.12676958e-06
5.901052277e-06
6.940889742e-06
6.805491548e-06
6.101405798e-06
6.110442108e-06
5.952324689e-06
4.85622395e-06
4.94125636e-06
5.589257271e-06
4.79078783e-06
4.979711261e-06
4.845495925e-06
4.760517351e-06
4.565266464e-06
4.605268302e-06
4.11484483e-06
4.147856343e-06
4.147996861e-06
4.108597052e-06
3.772024925e-06
3.882900827e-06
2.75472923e-06
2.35726543e-06
3.461322829e-06
3.785242568e-06
3.894956532e-06
2.556832248e-06
2.836732122e-06
2.816295848e-06
2.511950844e-06
2.103243562e-05
2.10688184e-05
2.176190763e-05
2.178206246e-05
2.113010511e-05
2.11005946e-05
2.181221542e-05
2.179830222e-05
2.079724037e-05
2.087648384e-05
2.099005206e-05
2.093911005e-05
2.468052473e-05
2.468894865e-05
2.185240595e-05
2.184435318e-05
2.470248506e-05
2.469589165e-05
2.182444341e-05
2.183504699e-05
2.47216628e-05
2.471743255e-05
2.470789176e-05
2.471312535e-05
1.680737683e-05
1.672742919e-05
1.644274945e-05
1.663138621e-05
1.420627213e-05
1.511995574e-05
1.613153527e-05
1.571933687e-05
1.051694382e-05
9.377843286e-06
8.413940271e-06
1.074650513e-05
1.047859939e-05
1.39093096e-05
1.224508836e-05
1.045250273e-05
1.074687716e-05
1.085626311e-05
1.087158551e-05
1.06752606e-05
9.2207672e-06
1.221862009e-05
1.17907402e-05
1.222869855e-05
1.244856281e-05
1.245920759e-05
9.142553626e-06
8.243017397e-06
8.849331052e-06
7.394736796e-06
7.087051022e-06
6.696071013e-06
7.744251829e-06
7.319729989e-06
6.755685244e-06
8.158844881e-06
6.248740499e-06
6.113161005e-06
6.111532207e-06
6.837542254e-06
5.987958207e-06
5.106736274e-06
5.029715157e-06
5.76382263e-06
5.82916452e-06
4.941616696e-06
5.090225005e-06
4.85847907e-06
4.116601124e-06
4.115268491e-06
4.626983717e-06
3.887737272e-06
4.126595398e-06
4.084909779e-06
3.878369215e-06
3.759411116e-06
3.781975337e-06
3.450917449e-06
3.430209955e-06
3.429515169e-06
3.444324921e-06
3.097172524e-06
3.154793408e-06
2.894536726e-06
3.10718837e-06
3.162826266e-06
2.344105006e-06
1.702900267e-05
1.70536705e-05
2.115173463e-05
2.11658479e-05
1.709529413e-05
1.70754435e-05
2.119109196e-05
2.117941772e-05
1.68736226e-05
1.692602075e-05
1.700103931e-05
1.696735356e-05
2.185952007e-05
2.186572181e-05
2.122340725e-05
2.121711395e-05
2.187595589e-05
2.187119837e-05
2.120092859e-05
2.120970457e-05
2.189040107e-05
2.188735799e-05
2.188020119e-05
2.188394671e-05
1.363863217e-05
1.358600798e-05
1.338874353e-05
1.352082282e-05
1.16869145e-05
1.23840374e-05
1.315984123e-05
1.284669986e-05
8.742298397e-06
7.786870359e-06
7.249388486e-06
8.592718167e-06
8.342011697e-06
1.146372315e-05
1.003324562e-05
8.525511379e-06
8.72988411e-06
8.731123901e-06
8.788522822e-06
8.92446324e-06
8.059824738e-06
1.021486331e-05
9.647072626e-06
9.920131237e-06
9.935912701e-06
1.001606453e-05
7.545284601e-06
6.900233131e-06
7.221255754e-06
6.002276918e-06
5.949509012e-06
5.783236081e-06
6.244346626e-06
6.099842115e-06
5.787022454e-06
6.763414835e-06
5.078494611e-06
5.00827061e-06
4.95495012e-06
5.659487563e-06
4.888739445e-06
4.249007967e-06
4.263610115e-06
4.780858e-06
4.961927755e-06
4.012263688e-06
4.235050962e-06
3.970709878e-06
3.476503667e-06
3.423849695e-06
3.829337233e-06
3.160731155e-06
3.41640831e-06
3.431232201e-06
3.165077261e-06
3.096035113e-06
3.106615721e-06
2.88618707e-06
2.834906045e-06
2.833309919e-06
2.879108629e-06
2.543252318e-06
2.567093067e-06
2.415155461e-06
2.551104682e-06
2.572302411e-06
1.378383399e-05
1.380042074e-05
1.711010282e-05
1.711951183e-05
1.382836957e-05
1.38152098e-05
1.713573112e-05
1.71283505e-05
1.368211098e-05
1.371650482e-05
1.376560366e-05
1.374355006e-05
2.122921531e-05
2.123418112e-05
1.715681243e-05
1.715286732e-05
2.124231099e-05
2.123852705e-05
1.714180767e-05
1.714795774e-05
2.125359103e-05
2.12512589e-05
2.124546752e-05
2.124854152e-05
1.106067456e-05
1.102622201e-05
1.089007985e-05
1.09817791e-05
9.600166552e-06
1.013102922e-05
1.072317928e-05
1.048660617e-05
7.247773919e-06
6.44753845e-06
6.185273323e-06
6.880320042e-06
6.661081387e-06
9.441239899e-06
8.2149933e-06
6.948079085e-06
7.08511717e-06
7.023666318e-06
7.100838127e-06
7.446886823e-06
6.971028331e-06
8.521621068e-06
7.896222028e-06
8.059146719e-06
7.964927222e-06
8.074785836e-06
6.224079084e-06
5.764928137e-06
5.902236313e-06
4.88433147e-06
4.984414881e-06
4.959413136e-06
5.050249706e-06
5.077621027e-06
4.928960718e-06
5.605107243e-06
4.133169033e-06
4.104744692e-06
4.025215508e-06
4.681787327e-06
3.99479233e-06
3.530290735e-06
3.598571906e-06
3.961808778e-06
4.203080093e-06
3.26452961e-06
3.519963919e-06
3.248606889e-06
2.927062674e-06
2.846217221e-06
3.168492803e-06
2.573630509e-06
2.826275749e-06
2.873796955e-06
2.586660602e-06
2.549873935e-06
2.552369726e-06
2.408541296e-06
2.341685572e-06
2.339297899e-06
2.401048402e-06
1.115462174e-05
1.116563988e-05
1.383845326e-05
1.384473407e-05
1.11840883e-05
1.117555358e-05
1.385502695e-05
1.385044496e-05
1.108894354e-05
1.111127788e-05
1.11429575e-05
1.112873184e-05
1.716094097e-05
1.716424156e-05
1.38686172e-05
1.386621203e-05
1.716968046e-05
1.716717393e-05
1.385866276e-05
1.386298255e-05
1.717688095e-05
1.717552733e-05
1.717147358e-05
1.717367321e-05
8.965677811e-06
8.943302567e-06
8.84997333e-06
8.912864876e-06
7.876651175e-06
8.279913055e-06
8.729576502e-06
8.551949155e-06
5.99593943e-06
5.326549524e-06
5.238121928e-06
5.515539516e-06
5.332220646e-06
7.770957567e-06
6.722317222e-06
5.65877796e-06
5.746121961e-06
5.651209375e-06
5.734818582e-06
6.204544398e-06
5.980808198e-06
7.096861505e-06
6.465205896e-06
6.555207561e-06
6.408803399e-06
6.525237086e-06
5.132208387e-06
4.808789699e-06
4.830675986e-06
3.983104161e-06
4.168978329e-06
4.229268086e-06
4.095023142e-06
4.222878884e-06
4.179153324e-06
4.644125881e-06
3.367704889e-06
3.36535667e-06
3.275353333e-06
3.871227817e-06
3.266672705e-06
2.929739255e-06
3.026788896e-06
3.280560085e-06
3.546450438e-06
2.660830254e-06
2.923192822e-06
2.660178329e-06
2.458443502e-06
2.364421153e-06
2.621218506e-06
2.336613238e-06
2.401286305e-06
9.025312411e-06
9.032488952e-06
1.119087791e-05
1.119508862e-05
9.044357136e-06
9.039011175e-06
1.120149005e-05
1.119873871e-05
8.983795169e-06
8.99806098e-06
9.018061034e-06
9.009102565e-06
1.387155805e-05
1.387372738e-05
1.121010038e-05
1.120870422e-05
1.387733645e-05
1.387570644e-05
1.120356839e-05
1.120659662e-05
1.388183552e-05
1.388110964e-05
1.387827317e-05
1.387984308e-05
7.264672067e-06
7.25031534e-06
7.186994271e-06
7.229373208e-06
6.456356906e-06
6.761761791e-06
7.101308185e-06
6.96887197e-06
4.951818629e-06
4.392536596e-06
4.410414856e-06
4.425629626e-06
4.277360222e-06
6.393083941e-06
5.498258224e-06
4.606271048e-06
4.657505675e-06
4.547647818e-06
4.630012177e-06
5.163095745e-06
5.099121411e-06
5.902074716e-06
5.294933084e-06
5.337268248e-06
5.173148727e-06
5.283527388e-06
4.230521986e-06
4.006058212e-06
3.958127647e-06
3.254008504e-06
3.482260331e-06
3.590681248e-06
3.327689299e-06
3.509430547e-06
3.530614099e-06
3.847190981e-06
2.746636423e-06
2.759918674e-06
2.668863424e-06
3.199810088e-06
2.6728651e-06
2.429053334e-06
2.538800019e-06
2.714754489e-06
2.983081773e-06
2.425953899e-06
7.301417532e-06
7.305954153e-06
9.048866662e-06
9.051692343e-06
7.313284077e-06
7.310119538e-06
9.055555319e-06
9.053981375e-06
7.27603064e-06
7.284917934e-06
7.297118115e-06
7.29167751e-06
1.121219771e-05
1.121360676e-05
9.060864627e-06
9.060117167e-06
1.12159688e-05
1.121492181e-05
9.056648685e-06
9.058761835e-06
1.121868623e-05
1.121834762e-05
1.12163791e-05
1.121749341e-05
5.884541595e-06
5.875502161e-06
5.833194757e-06
5.86102558e-06
5.28805786e-06
5.518493705e-06
5.773274033e-06
5.675337898e-06
4.083865846e-06
3.617078181e-06
3.696674963e-06
3.553803083e-06
3.437091897e-06
5.257456834e-06
4.495359889e-06
3.747916255e-06
3.773388101e-06
3.66004863e-06
3.737023956e-06
4.292156714e-06
4.325959892e-06
4.902864123e-06
4.337439647e-06
4.349217116e-06
4.187026339e-06
4.285193673e-06
3.486339662e-06
3.333817733e-06
3.246243753e-06
2.662391375e-06
2.905467443e-06
3.037731556e-06
2.709076091e-06
2.914757989e-06
2.974047644e-06
3.186533535e-06
2.644038751e-06
2.502902072e-06
5.906112599e-06
5.908847024e-06
7.316219891e-06
7.318112389e-06
5.913066734e-06
5.911382863e-06
7.320333145e-06
7.319510003e-06
5.891428493e-06
5.896742093e-06
5.903768297e-06
5.900664218e-06
9.06235563e-06
9.063252551e-06
7.323466904e-06
7.323123734e-06
9.064771283e-06
9.064114576e-06
7.320810344e-06
7.322283224e-06
9.066319525e-06
9.06621725e-06
9.064858979e-06
9.065649281e-06
4.765400404e-06
4.759874368e-06
4.732247228e-06
4.749817235e-06
4.328442297e-06