/*--------------------------------*- C++ -*----------------------------------*\
  =========                 |
  \\      /  F ield         | OpenFOAM: The Open Source CFD Toolbox
   \\    /   O peration     | Website:  https://openfoam.org
    \\  /    A nd           | Version:  8
     \\/     M anipulation  |
\*---------------------------------------------------------------------------*/






FoamFile
{
    version     2.0;
    format      ascii;
    class       volSymmTensorField;
    location    "0";
    object      TauDDES;
}
// * * * * * * * * * * * * * * * * * * * * * * * * * * * * * * * * * * * * * //

dimensions      [0 2 -2 0 0 0 0];


internalField   nonuniform List<symmTensor>
22462
(
( 1.798171212e-07 -5.754278165e-10 -3.045239616e-09 8.121967682e-11 3.417471167e-11 2.448183807e-07 )
( 7.042050925e-07 -3.787574254e-09 -1.073035172e-08 7.194475571e-10 2.092042095e-10 9.205303968e-07 )
( 1.790393469e-07 -5.827772154e-10 -3.03105141e-09 8.07715006e-11 2.206295563e-11 2.439842035e-07 )
( 1.956145979e-06 -1.742197853e-08 -2.624116746e-08 4.370862783e-09 7.741914887e-10 2.417254336e-06 )
( 7.012779975e-07 -3.813636518e-09 -1.072166977e-08 7.126402246e-10 1.515553932e-10 9.1768527e-07 )
( 1.782784835e-07 -5.841334638e-10 -3.003929328e-09 7.943626312e-11 2.034547704e-11 2.433708062e-07 )
( 4.095742042e-06 -5.493732758e-08 -4.819887067e-08 1.740739286e-08 1.901993674e-09 4.72680631e-06 )
( 1.94839231e-06 -1.75188184e-08 -2.659691845e-08 4.338963411e-09 6.426617571e-10 2.408033197e-06 )
( 6.98420024e-07 -3.829602413e-09 -1.080413092e-08 7.04306502e-10 1.555574558e-10 9.14365728e-07 )
( 1.775554068e-07 -5.872218822e-10 -3.025178774e-09 7.829866616e-11 3.001596541e-11 2.424226011e-07 )
( 7.168000138e-06 -1.320821355e-07 -7.360390697e-08 5.236140055e-08 3.343493482e-09 7.713224477e-06 )
( 4.080722647e-06 -5.513750878e-08 -4.903197848e-08 1.728368382e-08 1.618784773e-09 4.709496352e-06 )
( 1.940931725e-06 -1.758466439e-08 -2.689040812e-08 4.293972289e-09 6.220574056e-10 2.399563527e-06 )
( 6.95657377e-07 -3.84634502e-09 -1.08850351e-08 6.960487187e-10 1.767614943e-10 9.11260031e-07 )
( 1.768232067e-07 -5.849633e-10 -3.093742817e-09 7.752001818e-11 4.104390439e-11 2.41539027e-07 )
( 1.093223182e-05 -2.56909118e-07 -9.827705583e-08 1.298623147e-07 4.430897871e-09 1.10814799e-05 )
( 7.14400494e-06 -1.324127794e-07 -7.509929389e-08 5.207505183e-08 2.892130091e-09 7.6842216e-06 )
( 4.066212114e-06 -5.531684621e-08 -4.975673562e-08 1.715339693e-08 1.579984588e-09 4.691219601e-06 )
( 1.933891326e-06 -1.766590962e-08 -2.718689096e-08 4.253474906e-09 6.595221591e-10 2.390592499e-06 )
( 6.930209793e-07 -3.85571175e-09 -1.108870062e-08 6.906883399e-10 2.051096515e-10 9.076026686e-07 )
( 1.761719659e-07 -5.889363996e-10 -3.135397275e-09 7.724449552e-11 4.523124583e-11 2.405641624e-07 )
( 1.488089219e-05 -4.215320359e-07 -1.186796368e-07 2.791011582e-07 3.899708112e-09 1.44835476e-05 )
( 1.090031401e-05 -2.572783728e-07 -1.004219712e-07 1.291863185e-07 3.581377417e-09 1.104289458e-05 )
( 7.121023373e-06 -1.326989292e-07 -7.658906753e-08 5.175668605e-08 2.75872214e-09 7.655869922e-06 )
( 4.05236915e-06 -5.55240689e-08 -5.045270868e-08 1.702792751e-08 1.602741939e-09 4.673921467e-06 )
( 1.926765663e-06 -1.769632441e-08 -2.750180528e-08 4.223446926e-09 6.959237631e-10 2.381042805e-06 )
( 6.903980534e-07 -3.865958664e-09 -1.125254467e-08 6.877908243e-10 2.115873171e-10 9.036246524e-07 )
( 1.754770977e-07 -5.848540541e-10 -3.153351358e-09 7.67503977e-11 4.297656328e-11 2.394664307e-07 )
( 1.849058935e-05 -6.096009315e-07 -1.398035749e-07 5.379630466e-07 1.51821844e-09 1.763359069e-05 )
( 1.484226595e-05 -4.219337768e-07 -1.222291246e-07 2.777241548e-07 2.908142394e-09 1.443821384e-05 )
( 1.086808516e-05 -2.57507935e-07 -1.029002306e-07 1.285705196e-07 3.482065303e-09 1.100512418e-05 )
( 7.098669812e-06 -1.330723904e-07 -7.817227754e-08 5.147040838e-08 2.777923891e-09 7.627706054e-06 )
( 4.038578936e-06 -5.564602645e-08 -5.110819856e-08 1.693403284e-08 1.581405673e-09 4.655446901e-06 )
( 1.919916485e-06 -1.775202207e-08 -2.794035403e-08 4.207138637e-09 6.684236498e-10 2.370656603e-06 )
( 6.877821761e-07 -3.854321307e-09 -1.123657789e-08 6.839416811e-10 1.767476998e-10 8.998108001e-07 )
( 1.748357761e-07 -5.881098941e-10 -3.161088946e-09 7.607205144e-11 3.205557347e-11 2.384154811e-07 )
( 2.145020335e-05 -8.126451689e-07 -1.740952058e-07 9.516714385e-07 -2.743047345e-09 2.036788828e-05 )
( 1.844871258e-05 -6.100277119e-07 -1.449254512e-07 5.351791401e-07 2.757280515e-10 1.75849982e-05 )
( 1.480373521e-05 -4.218991876e-07 -1.25754724e-07 2.763325142e-07 2.636410867e-09 1.439402695e-05 )
( 1.083709867e-05 -2.578660201e-07 -1.050484997e-07 1.278595363e-07 3.298861628e-09 1.096791402e-05 )
( 7.076021575e-06 -1.33202704e-07 -7.870230689e-08 5.118736368e-08 2.558425694e-09 7.599602213e-06 )
( 4.024766895e-06 -5.570454675e-08 -5.133079384e-08 1.68389036e-08 1.395843996e-09 4.636525773e-06 )
( 1.912823109e-06 -1.770408709e-08 -2.781361275e-08 4.182150626e-09 5.291060368e-10 2.360818144e-06 )
( 6.851593071e-07 -3.854000674e-09 -1.112011461e-08 6.795116692e-10 1.159171648e-10 8.959723914e-07 )
( 1.740654341e-07 -5.81583337e-10 -3.128674875e-09 7.556985593e-11 1.865454319e-11 2.373745787e-07 )
( 2.48680808e-05 -1.221651701e-06 -2.752262844e-07 2.168590981e-06 -1.261783211e-08 2.401218262e-05 )
( 2.140596189e-05 -8.127432807e-07 -1.8206552e-07 9.471036719e-07 -3.327914833e-09 2.03204745e-05 )
( 1.840502591e-05 -6.096229299e-07 -1.511047572e-07 5.326156156e-07 5.70751113e-10 1.753839933e-05 )
( 1.476454509e-05 -4.220805749e-07 -1.30238007e-07 2.750656449e-07 2.88882207e-09 1.435148442e-05 )
( 1.080549191e-05 -2.579495799e-07 -1.073476454e-07 1.272886294e-07 3.243961544e-09 1.093119863e-05 )
( 7.0536762e-06 -1.333488626e-07 -7.951944525e-08 5.092534394e-08 2.250987841e-09 7.571320111e-06 )
( 4.01116904e-06 -5.570121431e-08 -5.173000162e-08 1.674906436e-08 1.109228487e-09 4.618021649e-06 )
( 1.905987233e-06 -1.772651359e-08 -2.777491304e-08 4.154930622e-09 3.417535699e-10 2.351074045e-06 )
( 6.825013656e-07 -3.842280716e-09 -1.115641179e-08 6.747306602e-10 5.900465533e-11 8.919849961e-07 )
( 1.734197355e-07 -5.829275951e-10 -3.143190375e-09 7.49876411e-11 3.81708597e-12 2.362718874e-07 )
( 2.528510595e-05 -1.330909186e-06 -2.924520857e-07 2.539766001e-06 -1.192833921e-08 2.45463907e-05 )
( 2.482822129e-05 -1.222158289e-06 -2.881923251e-07 2.158091092e-06 -1.154235107e-08 2.397219396e-05 )
( 2.136269904e-05 -8.118852861e-07 -1.907194616e-07 9.424636573e-07 -3.612791399e-09 2.027352457e-05 )
( 1.836370029e-05 -6.097645837e-07 -1.569567019e-07 5.298501833e-07 5.275552772e-10 1.749195872e-05 )
( 1.472691565e-05 -4.218817935e-07 -1.334099125e-07 2.736683768e-07 2.752018613e-09 1.430762859e-05 )
( 1.077447814e-05 -2.580596288e-07 -1.08551248e-07 1.265872243e-07 2.863995929e-09 1.089437501e-05 )
( 7.031479527e-06 -1.332548436e-07 -8.030811927e-08 5.063403208e-08 1.84947313e-09 7.543863831e-06 )
( 3.997637577e-06 -5.566767314e-08 -5.195344599e-08 1.663737059e-08 7.541299252e-10 4.599999556e-06 )
( 1.898852133e-06 -1.766137991e-08 -2.784707576e-08 4.124848019e-09 1.582494275e-10 2.341164418e-06 )
( 6.800122492e-07 -3.848997121e-09 -1.125331117e-08 6.692393861e-10 1.493341475e-12 8.879304687e-07 )
( 1.727536443e-07 -5.800160907e-10 -3.139511762e-09 7.460868728e-11 -1.172248063e-11 2.35192033e-07 )
( 2.576091902e-05 -1.559725547e-06 -3.244220466e-07 3.309056865e-06 -1.394379279e-08 2.521342685e-05 )
( 2.525536001e-05 -1.333275577e-06 -3.060692393e-07 2.522360546e-06 -1.053992893e-08 2.451100409e-05 )
( 2.478580609e-05 -1.220593049e-06 -3.014335732e-07 2.148927706e-06 -1.024117591e-08 2.393209797e-05 )
( 2.132019836e-05 -8.127590263e-07 -1.994417005e-07 9.373774219e-07 -2.628023577e-09 2.02259962e-05 )
( 1.832174712e-05 -6.090956504e-07 -1.634993652e-07 5.272660246e-07 1.174811137e-09 1.744537076e-05 )
( 1.468902792e-05 -4.220113112e-07 -1.38036711e-07 2.7227955e-07 3.100184109e-09 1.426457129e-05 )
( 1.074341526e-05 -2.580194689e-07 -1.121923248e-07 1.259551539e-07 2.846617386e-09 1.085853728e-05 )
( 7.00973078e-06 -1.332854822e-07 -8.235433313e-08 5.033165706e-08 1.523416393e-09 7.516493497e-06 )
( 3.983889201e-06 -5.555876115e-08 -5.262721459e-08 1.652281334e-08 4.28318242e-10 4.581864232e-06 )
( 1.892205432e-06 -1.766592028e-08 -2.822314649e-08 4.094090844e-09 -4.150077851e-12 2.331132464e-06 )
( 6.7754371e-07 -3.839581098e-09 -1.138052586e-08 6.656118989e-10 -5.195894062e-11 8.839855923e-07 )
( 1.721210481e-07 -5.780642076e-10 -3.14209303e-09 7.446031985e-11 -2.621836429e-11 2.340491676e-07 )
( 2.609808689e-05 -1.893063882e-06 -3.554063426e-07 4.54263818e-06 -1.811024042e-08 2.579745887e-05 )
( 2.572419362e-05 -1.55643113e-06 -3.350158977e-07 3.300850494e-06 -1.435841579e-08 2.518463589e-05 )
( 2.520524322e-05 -1.330323812e-06 -3.195904696e-07 2.516469522e-06 -8.435990573e-09 2.446976396e-05 )
( 2.474854409e-05 -1.221755383e-06 -3.14186309e-07 2.137415322e-06 -8.649572614e-09 2.389160181e-05 )
( 2.127798689e-05 -8.111170473e-07 -2.082829553e-07 9.327936823e-07 -2.16258611e-09 2.017957377e-05 )
( 1.828119275e-05 -6.092590183e-07 -1.694938305e-07 5.243284704e-07 1.855829046e-09 1.739762592e-05 )
( 1.465186688e-05 -4.21772711e-07 -1.426115119e-07 2.707373312e-07 3.469718957e-09 1.422155583e-05 )
( 1.071375664e-05 -2.57971152e-07 -1.151105096e-07 1.251105743e-07 2.67217648e-09 1.082256495e-05 )
( 6.988399946e-06 -1.330638497e-07 -8.38432257e-08 4.996170588e-08 1.138987016e-09 7.489303698e-06 )
( 3.970937996e-06 -5.556335481e-08 -5.335710895e-08 1.639718583e-08 1.449923376e-10 4.563629318e-06 )
( 1.885708116e-06 -1.76445436e-08 -2.857695058e-08 4.069180548e-09 -1.481267331e-10 2.321052079e-06 )
( 6.751390629e-07 -3.831634565e-09 -1.137522876e-08 6.636035055e-10 -1.046206316e-10 8.797766782e-07 )
( 1.715372377e-07 -5.749760112e-10 -3.168127094e-09 7.483642178e-11 -3.738674301e-11 2.328620354e-07 )
( 2.616342681e-05 -2.221490149e-06 -3.686140531e-07 5.81473887e-06 -3.539423687e-08 2.605378722e-05 )
( 2.607420902e-05 -1.89016032e-06 -3.666136195e-07 4.521091796e-06 -1.838230546e-08 2.576926636e-05 )
( 2.568399577e-05 -1.555464451e-06 -3.506573307e-07 3.28083911e-06 -1.200762156e-08 2.51444344e-05 )
( 2.517704343e-05 -1.332841748e-06 -3.330585514e-07 2.498472213e-06 -6.666154739e-09 2.443444828e-05 )
( 2.470634718e-05 -1.217519525e-06 -3.268525575e-07 2.128767846e-06 -8.09906453e-09 2.385321386e-05 )
( 2.123533341e-05 -8.116612094e-07 -2.170637572e-07 9.278895732e-07 -5.570108819e-10 2.013200901e-05 )
( 1.823970888e-05 -6.086477811e-07 -1.771745417e-07 5.216301702e-07 2.839871227e-09 1.735168553e-05 )
( 1.461541069e-05 -4.217865808e-07 -1.48011793e-07 2.690927374e-07 3.701922102e-09 1.417909789e-05 )
( 1.068433176e-05 -2.576725251e-07 -1.181532809e-07 1.242484586e-07 2.364829887e-09 1.078671357e-05 )
( 6.967477475e-06 -1.330320885e-07 -8.538976459e-08 4.959186128e-08 8.030343612e-10 7.461909263e-06 )
( 3.957943591e-06 -5.545911108e-08 -5.437253492e-08 1.629976154e-08 -7.860855022e-11 4.545447609e-06 )
( 1.879355409e-06 -1.763398849e-08 -2.898364748e-08 4.05272127e-09 -2.434230595e-10 2.310878472e-06 )
( 6.726924084e-07 -3.815324945e-09 -1.132097172e-08 6.648060435e-10 -1.414597051e-10 8.75672697e-07 )
( 1.709652508e-07 -5.726703001e-10 -3.17819393e-09 7.609197994e-11 -4.396896042e-11 2.316781291e-07 )
( 2.600776133e-05 -2.775336498e-06 -3.550945564e-07 7.77508194e-06 -6.755962545e-08 2.599001527e-05 )
( 2.616129495e-05 -2.221172281e-06 -3.690794301e-07 5.813295502e-06 -3.52171412e-08 2.605166083e-05 )
( 2.602646782e-05 -1.888622251e-06 -3.753485487e-07 4.503284799e-06 -1.816731476e-08 2.573233724e-05 )
( 2.564863462e-05 -1.555704216e-06 -3.611802981e-07 3.272279173e-06 -1.000065275e-08 2.511199637e-05 )
( 2.512715764e-05 -1.32643197e-06 -3.456344757e-07 2.493522743e-06 -5.820473437e-09 2.439430136e-05 )
( 2.466631486e-05 -1.218186981e-06 -3.373318691e-07 2.118041948e-06 -7.464707963e-09 2.381280137e-05 )
( 2.119312012e-05 -8.109418559e-07 -2.254350591e-07 9.234030927e-07 8.505788296e-10 2.008469164e-05 )
( 1.819974932e-05 -6.091028126e-07 -1.836458239e-07 5.18747072e-07 3.777684388e-09 1.730388431e-05 )
( 1.457997951e-05 -4.215619356e-07 -1.520252368e-07 2.673976667e-07 3.750443511e-09 1.413530299e-05 )
( 1.065559809e-05 -2.576462066e-07 -1.20426904e-07 1.233656093e-07 2.176506975e-09 1.075071577e-05 )
( 6.946852409e-06 -1.329056971e-07 -8.717647404e-08 4.927882458e-08 6.577247635e-10 7.434448435e-06 )
( 3.945542176e-06 -5.54495756e-08 -5.538862879e-08 1.622496093e-08 -1.847170888e-10 4.526707016e-06 )
( 1.872914709e-06 -1.757294221e-08 -2.876605976e-08 4.053370528e-09 -3.377599311e-10 2.300472715e-06 )
( 6.705781743e-07 -3.812083982e-09 -1.144997963e-08 6.70749678e-10 -1.491186341e-10 8.713406032e-07 )
( 1.70436266e-07 -5.694378302e-10 -3.096600754e-09 7.837598626e-11 -4.388238037e-11 2.304935123e-07 )
( 2.571049481e-05 -3.287302206e-06 -3.202072207e-07 9.409620361e-06 -1.046269631e-07 2.553267404e-05 )
( 2.595738624e-05 -2.766618536e-06 -3.609322903e-07 7.734425708e-06 -6.246639828e-08 2.593052341e-05 )
( 2.610031515e-05 -2.21807295e-06 -3.841394118e-07 5.762614819e-06 -2.93937763e-08 2.598718856e-05 )
( 2.600323387e-05 -1.890758995e-06 -3.863778488e-07 4.482064014e-06 -1.566931473e-08 2.570217475e-05 )
( 2.560738722e-05 -1.551920946e-06 -3.757581055e-07 3.254706371e-06 -7.46254436e-09 2.507036879e-05 )
( 2.509711703e-05 -1.32822538e-06 -3.567813565e-07 2.476011332e-06 -5.711555673e-09 2.435925489e-05 )
( 2.462369594e-05 -1.217263957e-06 -3.464489282e-07 2.109199613e-06 -6.515233242e-09 2.377062992e-05 )
( 2.115261668e-05 -8.119948802e-07 -2.329403799e-07 9.18603746e-07 2.07884665e-09 2.003642476e-05 )
( 1.815964606e-05 -6.088028499e-07 -1.896409998e-07 5.16046498e-07 4.183641877e-09 1.725595575e-05 )
( 1.454394351e-05 -4.217817207e-07 -1.55773094e-07 2.657824041e-07 3.78305387e-09 1.409176639e-05 )
( 1.062659248e-05 -2.575910401e-07 -1.23018836e-07 1.226624278e-07 2.210529759e-09 1.071401039e-05 )
( 6.926598417e-06 -1.329175205e-07 -8.939490215e-08 4.906867446e-08 6.361700611e-10 7.405902579e-06 )
( 3.933208063e-06 -5.534220548e-08 -5.567762429e-08 1.620569456e-08 -2.635792973e-10 4.507593076e-06 )
( 1.867151809e-06 -1.756027856e-08 -2.91844664e-08 4.073880788e-09 -3.133333037e-10 2.289787062e-06 )
( 6.684980463e-07 -3.80042442e-09 -1.14067209e-08 6.823523968e-10 -1.275730355e-10 8.671154887e-07 )
( 1.699943226e-07 -5.687702531e-10 -3.092343714e-09 8.199232959e-11 -3.296499532e-11 2.292751589e-07 )
( 2.540515561e-05 -4.091854862e-06 -2.169138895e-07 1.180365507e-05 -1.755216914e-07 2.483664139e-05 )
( 2.5703961e-05 -3.284422746e-06 -3.199792502e-07 9.39878737e-06 -1.038603799e-07 2.552214573e-05 )
( 2.609821058e-05 -2.217878318e-06 -3.844159835e-07 5.761301054e-06 -2.928070586e-08 2.598513493e-05 )
( 2.589484029e-05 -2.751935881e-06 -3.654659508e-07 7.665020348e-06 -5.411108006e-08 2.584380854e-05 )
( 2.595289698e-05 -1.882780225e-06 -3.965603241e-07 4.472852197e-06 -1.143346573e-08 2.565791692e-05 )
( 2.557140397e-05 -1.551326818e-06 -3.842962144e-07 3.245370181e-06 -7.816042924e-09 2.503742508e-05 )
( 2.504656914e-05 -1.325020889e-06 -3.660128414e-07 2.470169647e-06 -5.852657026e-09 2.431725625e-05 )
( 2.45880874e-05 -1.219436172e-06 -3.545940785e-07 2.098184268e-06 -5.991376284e-09 2.372796007e-05 )
( 2.111107278e-05 -8.108801808e-07 -2.390428051e-07 9.144689557e-07 2.584016112e-09 1.998833068e-05 )
( 1.811982838e-05 -6.092569151e-07 -1.938841336e-07 5.133518926e-07 4.365818818e-09 1.720794535e-05 )
( 1.45086351e-05 -4.216573757e-07 -1.584994038e-07 2.644021038e-07 3.85184018e-09 1.404829254e-05 )
( 1.059861643e-05 -2.576117026e-07 -1.250839006e-07 1.22129336e-07 2.199117777e-09 1.067680296e-05 )
( 6.906196177e-06 -1.326126267e-07 -8.902426174e-08 4.896236305e-08 4.841398393e-10 7.377733709e-06 )
( 3.92125412e-06 -5.522890945e-08 -5.551492421e-08 1.624208146e-08 -2.405173283e-10 4.488556442e-06 )
( 1.861524879e-06 -1.751732981e-08 -2.928767628e-08 4.115961794e-09 -2.050597747e-10 2.279294222e-06 )
( 6.66579183e-07 -3.795612713e-09 -1.137880012e-08 6.987211365e-10 -6.422287702e-11 8.629348827e-07 )
( 1.69602373e-07 -5.668918113e-10 -3.115809166e-09 8.648520788e-11 -9.049391445e-12 2.281126257e-07 )
( 2.531926111e-05 -4.042373803e-06 -2.126350012e-07 1.164152036e-05 -1.561227663e-07 2.467941158e-05 )
( 2.556768595e-05 -5.595217772e-06 1.664090234e-07 1.530837835e-05 -2.725811044e-07 2.397335629e-05 )
( 2.561212386e-05 -3.252532451e-06 -3.175557879e-07 9.277233403e-06 -9.310284099e-08 2.538116496e-05 )
( 2.602825043e-05 -2.209172408e-06 -3.961633297e-07 5.72886529e-06 -2.581382041e-08 2.591335578e-05 )
( 2.584257527e-05 -2.74490003e-06 -3.665238637e-07 7.623512829e-06 -5.415583715e-08 2.578187195e-05 )
( 2.602627137e-05 -2.209001423e-06 -3.964856603e-07 5.727441476e-06 -2.571838209e-08 2.591116936e-05 )
( 2.593125282e-05 -1.885764163e-06 -4.06343986e-07 4.451836048e-06 -1.023784701e-08 2.56283347e-05 )
( 2.553366176e-05 -1.552941171e-06 -3.964673851e-07 3.22674623e-06 -7.163117655e-09 2.499784387e-05 )
( 2.501985182e-05 -1.32969285e-06 -3.747945527e-07 2.453234856e-06 -4.675516863e-09 2.427909203e-05 )
( 2.454816968e-05 -1.216067517e-06 -3.621109954e-07 2.089689815e-06 -6.057883084e-09 2.368673267e-05 )
( 2.107068758e-05 -8.116052186e-07 -2.435043882e-07 9.100797342e-07 2.890620854e-09 1.994020022e-05 )
( 1.80801344e-05 -6.091150908e-07 -1.965509568e-07 5.109674817e-07 4.36971348e-09 1.716063525e-05 )
( 1.44738824e-05 -4.221379015e-07 -1.608908633e-07 2.633847771e-07 3.970127338e-09 1.400383735e-05 )
( 1.057049303e-05 -2.573307825e-07 -1.255402111e-07 1.218516559e-07 2.143445421e-09 1.06396401e-05 )
( 6.886997198e-06 -1.324468712e-07 -8.879361246e-08 4.896964967e-08 5.845515738e-10 7.349001407e-06 )
( 3.910137821e-06 -5.511048684e-08 -5.587209984e-08 1.633079094e-08 5.741747702e-11 4.469296528e-06 )
( 1.85611384e-06 -1.74542425e-08 -2.918079289e-08 4.171420986e-09 2.178006386e-11 2.269269999e-06 )
( 6.648316457e-07 -3.766784218e-09 -1.134833472e-08 7.16246451e-10 5.173389148e-11 8.59149452e-07 )
( 1.692302476e-07 -5.60752389e-10 -3.114402736e-09 9.069353601e-11 2.751402578e-11 2.271481065e-07 )
( 2.522826799e-05 -3.998750799e-06 -1.998387944e-07 1.149025775e-05 -1.401560183e-07 2.451277578e-05 )
( 2.560577195e-05 -3.250747568e-06 -3.172937681e-07 9.26703342e-06 -9.206280538e-08 2.536883039e-05 )
( 2.548908378e-05 -5.527675057e-06 1.594159329e-07 1.511383562e-05 -2.497171465e-07 2.384850632e-05 )
( 2.593312092e-05 -6.438016953e-06 4.282624673e-07 1.673859515e-05 -2.833336623e-07 2.357445192e-05 )
( 2.5966865e-05 -2.20735501e-06 -4.073025082e-07 5.675939519e-06 -2.447736769e-08 2.584642789e-05 )
( 2.578169915e-05 -2.732800567e-06 -3.671438833e-07 7.554478543e-06 -5.314818452e-08 2.568852869e-05 )
( 2.596878585e-05 -2.207627404e-06 -4.070589625e-07 5.677269655e-06 -2.439134228e-08 2.5848527e-05 )
( 2.588570351e-05 -1.88588092e-06 -4.136043117e-07 4.434302809e-06 -1.143984552e-08 2.559107634e-05 )
( 2.54983097e-05 -1.552600111e-06 -4.030587206e-07 3.217359108e-06 -7.117165968e-09 2.496402158e-05 )
( 2.497259811e-05 -1.323606057e-06 -3.822491976e-07 2.448065516e-06 -5.487536203e-09 2.423686783e-05 )
( 2.451299224e-05 -1.217783165e-06 -3.683419436e-07 2.079353635e-06 -5.904008837e-09 2.364375177e-05 )
( 2.103001498e-05 -8.11224993e-07 -2.462803081e-07 9.063077755e-07 3.014184458e-09 1.989209886e-05 )
( 1.804193016e-05 -6.099499501e-07 -1.979831836e-07 5.090050195e-07 4.34689218e-09 1.711201185e-05 )
( 1.444008012e-05 -4.218007348e-07 -1.611660423e-07 2.626810556e-07 3.909012225e-09 1.396032803e-05 )
( 1.054353106e-05 -2.569854587e-07 -1.238367133e-07 1.216754413e-07 2.08744777e-09 1.060328395e-05 )
( 6.868273431e-06 -1.320765648e-07 -8.77156765e-08 4.904338269e-08 9.328872119e-10 7.321105386e-06 )
( 3.8987896e-06 -5.482694476e-08 -5.465262376e-08 1.642224845e-08 4.990635127e-10 4.451736459e-06 )
( 1.850778744e-06 -1.727796217e-08 -2.85428996e-08 4.220186867e-09 3.763168943e-10 2.260479505e-06 )
( 6.630880307e-07 -3.720592279e-09 -1.133162097e-08 7.313498696e-10 2.046276065e-10 8.557325941e-07 )
( 1.688424618e-07 -5.498422273e-10 -3.224106315e-09 9.341528939e-11 7.083595516e-11 2.262342775e-07 )
( 2.551192483e-05 -3.225919272e-06 -3.099649462e-07 9.149654943e-06 -8.453861255e-08 2.521366332e-05 )
( 2.514110929e-05 -3.963034032e-06 -1.861073429e-07 1.134294416e-05 -1.241011631e-07 2.434086309e-05 )
( 2.540256355e-05 -5.463966772e-06 1.525767175e-07 1.493039872e-05 -2.26533956e-07 2.372688323e-05 )
( 2.550504541e-05 -3.224720331e-06 -3.092011696e-07 9.139404938e-06 -8.358109227e-08 2.520076305e-05 )
( 2.572526137e-05 -6.287685665e-06 3.993548603e-07 1.635175249e-05 -2.471671792e-07 2.338901868e-05 )
( 2.727184255e-05 -8.100563718e-06 7.770553907e-07 1.897102811e-05 -3.088188691e-07 2.357407357e-05 )
( 2.589757969e-05 -2.195778961e-06 -4.154398709e-07 5.641807547e-06 -2.651999864e-08 2.577457417e-05 )
( 2.586208939e-05 -1.88698607e-06 -4.218292702e-07 4.412849194e-06 -1.081680168e-08 2.556228901e-05 )
( 2.573471829e-05 -2.728422942e-06 -3.677625671e-07 7.512350294e-06 -5.3891128e-08 2.562259215e-05 )
( 2.589568248e-05 -2.195608431e-06 -4.156803755e-07 5.640356449e-06 -2.650860687e-08 2.577239138e-05 )
( 2.545810821e-05 -1.548509317e-06 -4.127248872e-07 3.199659886e-06 -6.887290738e-09 2.492178828e-05 )
( 2.494590808e-05 -1.327096015e-06 -3.892328948e-07 2.431756684e-06 -5.068672593e-09 2.419850534e-05 )
( 2.447521365e-05 -1.217588078e-06 -3.735924565e-07 2.071518566e-06 -5.035779349e-09 2.359907558e-05 )
( 2.099130506e-05 -8.128276363e-07 -2.486161179e-07 9.027890542e-07 3.480115751e-09 1.984242044e-05 )
( 1.80044135e-05 -6.10033112e-07 -1.995936998e-07 5.075132208e-07 4.712782165e-09 1.706373951e-05 )
( 1.440779852e-05 -4.217391165e-07 -1.598871364e-07 2.620323016e-07 3.86841803e-09 1.391694605e-05 )
( 1.051912477e-05 -2.564906083e-07 -1.221790313e-07 1.215253178e-07 2.494297879e-09 1.056618567e-05 )
( 6.851018497e-06 -1.314938771e-07 -8.5758316e-08 4.907167295e-08 1.599561372e-09 7.29383828e-06 )
( 3.888362698e-06 -5.431758865e-08 -5.340642772e-08 1.647891423e-08 1.169876973e-09 4.434861694e-06 )
( 1.845759584e-06 -1.706184172e-08 -2.839062141e-08 4.252867836e-09 7.910129218e-10 2.251719934e-06 )
( 6.612650054e-07 -3.643044533e-09 -1.137577765e-08 7.379977185e-10 3.544894378e-10 8.52667597e-07 )
( 1.683228561e-07 -5.341201925e-10 -3.2011227e-09 9.359175934e-11 1.060659408e-10 2.256079199e-07 )
( 2.531677819e-05 -5.409045116e-06 1.426362246e-07 1.475773661e-05 -2.032403756e-07 2.36053711e-05 )
( 2.541367758e-05 -3.203288088e-06 -2.968932051e-07 9.022091945e-06 -7.475127006e-08 2.504054828e-05 )
( 2.540626338e-05 -3.201979553e-06 -2.949982161e-07 9.01119256e-06 -7.425739312e-08 2.502765528e-05 )
( 2.506044439e-05 -3.930286766e-06 -1.621657191e-07 1.11835825e-05 -1.166192902e-07 2.417141877e-05 )
( 2.550584213e-05 -6.155205938e-06 3.644224762e-07 1.598000745e-05 -2.114436626e-07 2.321575084e-05 )
( 2.689696703e-05 -7.883610124e-06 7.05645391e-07 1.85558747e-05 -2.693599868e-07 2.336231228e-05 )
( 2.581264562e-05 -1.873164933e-06 -4.282258885e-07 4.401743809e-06 -1.257284321e-08 2.552172555e-05 )
( 2.583931928e-05 -2.197958565e-06 -4.238547149e-07 5.587098713e-06 -2.783815489e-08 2.570203651e-05 )
( 2.56694675e-05 -2.717323696e-06 -3.639209183e-07 7.441281468e-06 -4.956995525e-08 2.552775186e-05 )
( 2.584141112e-05 -2.198055881e-06 -4.236770224e-07 5.588455224e-06 -2.785475495e-08 2.570430297e-05 )
( 2.579163811e-05 -1.875718681e-06 -4.352561405e-07 4.380701739e-06 -1.324860932e-08 2.549157034e-05 )
( 2.542427137e-05 -1.548244882e-06 -4.183693818e-07 3.19148262e-06 -8.076683322e-09 2.488899736e-05 )
( 2.490038423e-05 -1.32557966e-06 -3.947787377e-07 2.42620581e-06 -5.445663476e-09 2.415376002e-05 )
( 2.444305028e-05 -1.219846581e-06 -3.794677355e-07 2.061898385e-06 -3.348540556e-09 2.355408105e-05 )
( 2.095283162e-05 -8.124938518e-07 -2.507137538e-07 8.997631085e-07 4.003119169e-09 1.979289846e-05 )
( 1.796887773e-05 -6.103695114e-07 -1.989080829e-07 5.05885339e-07 4.606884207e-09 1.701615838e-05 )
( 1.437768879e-05 -4.211478597e-07 -1.573687882e-07 2.612998458e-07 3.849979002e-09 1.387371776e-05 )
( 1.049547882e-05 -2.556584775e-07 -1.190870478e-07 1.212528815e-07 2.960267143e-09 1.053049255e-05 )
( 6.833964107e-06 -1.304820927e-07 -8.278787789e-08 4.902662809e-08 2.316054237e-09 7.268207355e-06 )
( 3.878088137e-06 -5.369934541e-08 -5.187054342e-08 1.647125814e-08 1.795308902e-09 4.418788194e-06 )
( 1.840523396e-06 -1.674690253e-08 -2.761452755e-08 4.237021844e-09 1.111926662e-09 2.244062671e-06 )
( 6.593590456e-07 -3.556468897e-09 -1.123204818e-08 7.285905212e-10 4.460751213e-10 8.498797115e-07 )
( 1.67740879e-07 -5.185726848e-10 -3.190523623e-09 9.002136536e-11 1.185749554e-10 2.249052784e-07 )
( 2.522876457e-05 -5.356438123e-06 1.385613757e-07 1.456935388e-05 -1.839084973e-07 2.349787246e-05 )
( 2.561933979e-05 -2.712972218e-06 -3.607342762e-07 7.399827609e-06 -4.95658945e-08 2.545785537e-05 )
( 2.530973507e-05 -3.181105967e-06 -2.740379443e-07 8.888699085e-06 -7.350517706e-08 2.486287121e-05 )
( 2.497054629e-05 -3.901791388e-06 -1.377236742e-07 1.103188151e-05 -1.080013305e-07 2.399905316e-05 )
( 2.530195707e-05 -3.179605756e-06 -2.722501904e-07 8.878407243e-06 -7.32948422e-08 2.484909419e-05 )
( 2.514212611e-05 -5.311931545e-06 1.41817992e-07 1.439492098e-05 -1.669908016e-07 2.338385821e-05 )
( 2.538361514e-05 -6.091588602e-06 3.514228126e-07 1.578526826e-05 -1.913887786e-07 2.310281889e-05 )
( 2.656852303e-05 -7.700602509e-06 6.380420814e-07 1.816722943e-05 -2.403736232e-07 2.317855251e-05 )
( 2.577479063e-05 -2.187532118e-06 -4.301307968e-07 5.553945357e-06 -2.658918774e-08 2.562643931e-05 )
( 2.572955054e-05 -1.882300467e-06 -4.474539423e-07 4.341417934e-06 -1.424497675e-08 2.541947106e-05 )
( 2.577281339e-05 -2.187380232e-06 -4.302681305e-07 5.552466973e-06 -2.663713339e-08 2.562407826e-05 )
( 2.574831342e-05 -1.879773208e-06 -4.404392087e-07 4.362648269e-06 -1.46318353e-08 2.54507504e-05 )
( 2.538916124e-05 -1.551346941e-06 -4.26028663e-07 3.171609478e-06 -8.693989528e-09 2.484534525e-05 )
( 2.487764141e-05 -1.32969933e-06 -4.015097943e-07 2.410037041e-06 -3.425413508e-09 2.411335663e-05 )
( 2.440706521e-05 -1.217935505e-06 -3.844363619e-07 2.054795686e-06 -1.87657756e-09 2.35080006e-05 )
( 2.091542774e-05 -8.136981933e-07 -2.515388644e-07 8.964507288e-07 4.081550653e-09 1.974315637e-05 )
( 1.793453339e-05 -6.101055874e-07 -1.968251695e-07 5.041376312e-07 4.187853619e-09 1.696831168e-05 )
( 1.434936894e-05 -4.203629373e-07 -1.536300402e-07 2.601937865e-07 3.717554709e-09 1.383108429e-05 )
( 1.047277601e-05 -2.543136191e-07 -1.156381018e-07 1.207792621e-07 3.258448622e-09 1.049491675e-05 )
( 6.81818301e-06 -1.294088889e-07 -8.03753224e-08 4.881565374e-08 2.773954177e-09 7.241762887e-06 )
( 3.868142812e-06 -5.295850514e-08 -4.990967639e-08 1.635926594e-08 2.106220087e-09 4.403097137e-06 )
( 1.835458306e-06 -1.644542991e-08 -2.66997997e-08 4.175386259e-09 1.211063028e-09 2.236200771e-06 )
( 6.572448115e-07 -3.482785615e-09 -1.090973001e-08 7.051790818e-10 4.426980171e-10 8.469711474e-07 )
( 1.670378253e-07 -5.062851804e-10 -2.97198266e-09 8.250031908e-11 1.041901218e-10 2.243372705e-07 )
( 2.570975994e-05 -2.188857252e-06 -4.332621302e-07 5.499786766e-06 -2.671443156e-08 2.554651655e-05 )
( 2.571162986e-05 -2.188970484e-06 -4.331782577e-07 5.50110417e-06 -2.662338439e-08 2.554895218e-05 )
( 2.55541363e-05 -2.701844551e-06 -3.50099441e-07 7.327827007e-06 -5.192063668e-08 2.535691237e-05 )
( 2.48753131e-05 -3.873412425e-06 -1.132948455e-07 1.087983583e-05 -1.01311997e-07 2.383523315e-05 )
( 2.519257032e-05 -3.157380661e-06 -2.514410369e-07 8.751467249e-06 -7.316319994e-08 2.466428305e-05 )
( 2.520092858e-05 -3.159024345e-06 -2.529006338e-07 8.761873687e-06 -7.32775618e-08 2.467792365e-05 )
( 2.550160389e-05 -2.698456683e-06 -3.442362981e-07 7.286996151e-06 -5.530768732e-08 2.528308141e-05 )
( 2.505429802e-05 -5.270975635e-06 1.492087449e-07 1.422821242e-05 -1.525847892e-07 2.326429967e-05 )
( 2.515104643e-05 -5.991234048e-06 3.465678446e-07 1.546404928e-05 -1.623828894e-07 2.290847806e-05 )
( 2.494625915e-05 -5.226758276e-06 1.555219455e-07 1.405943385e-05 -1.354643047e-07 2.314922313e-05 )
( 2.640881939e-05 -7.612912214e-06 5.993416607e-07 1.795667413e-05 -2.275149313e-07 2.308060357e-05 )
( 2.568237323e-05 -1.870630285e-06 -4.529974547e-07 4.330900538e-06 -1.34395961e-08 2.537566979e-05 )
( 2.53569051e-05 -1.552308618e-06 -4.318989681e-07 3.162230314e-06 -8.380765415e-09 2.481040428e-05 )
( 2.566266812e-05 -1.8718913e-06 -4.575891239e-07 4.310360055e-06 -1.246452452e-08 2.53416456e-05 )
( 2.48337783e-05 -1.325221547e-06 -4.072090292e-07 2.405599389e-06 -2.321582482e-09 2.406679414e-05 )
( 2.437396142e-05 -1.219942646e-06 -3.882027215e-07 2.04527305e-06 -1.665141691e-09 2.346170004e-05 )
( 2.087849498e-05 -8.136589145e-07 -2.508338071e-07 8.932570381e-07 3.430979945e-09 1.969282312e-05 )
( 1.790166789e-05 -6.099007237e-07 -1.938041407e-07 5.019280707e-07 3.343039623e-09 1.69209361e-05 )
( 1.432100908e-05 -4.190521281e-07 -1.500806661e-07 2.590252564e-07 3.115465441e-09 1.378813977e-05 )
( 1.045095541e-05 -2.530044583e-07 -1.120467701e-07 1.200845077e-07 2.96558289e-09 1.045898807e-05 )
( 6.802538792e-06 -1.282312923e-07 -7.668322155e-08 4.835673906e-08 2.630311746e-09 7.216099675e-06 )
( 3.858497621e-06 -5.234865341e-08 -4.768325823e-08 1.611504175e-08 1.983599285e-09 4.386705768e-06 )
( 1.83042323e-06 -1.622954038e-08 -2.574112123e-08 4.076250892e-09 1.079139e-09 2.227411642e-06 )
( 6.551155707e-07 -3.429606155e-09 -1.020663909e-08 6.729605206e-10 3.728064524e-10 8.44074691e-07 )
( 1.664020743e-07 -4.991986824e-10 -2.81913648e-09 7.637030591e-11 8.079160257e-11 2.234038448e-07 )
( 2.559448694e-05 -1.877730256e-06 -4.630186936e-07 4.271321359e-06 -1.314843612e-08 2.526094977e-05 )