/*--------------------------------*- C++ -*----------------------------------*\
  =========                 |
  \\      /  F ield         | OpenFOAM: The Open Source CFD Toolbox
   \\    /   O peration     | Website:  https://openfoam.org
    \\  /    A nd           | Version:  8
     \\/     M anipulation  |
\*---------------------------------------------------------------------------*/






FoamFile
{
    version     2.0;
    format      ascii;
    class       volScalarField;
    location    "0";
    object      pDDES;
}
// * * * * * * * * * * * * * * * * * * * * * * * * * * * * * * * * * * * * * //

dimensions      [0 2 -2 0 0 0 0];


internalField   nonuniform List<scalar> 
23276
(
0.0003088071244
0.0003088110825
0.0003084383789
0.0003088135272
0.0003084417549
0.0003080750175
0.0003088093072
0.0003084441705
0.0003080782772
0.0003077195724
0.0003087898367
0.000308440387
0.0003080806928
0.0003077225992
0.0003073687549
0.0003087396326
0.0003084212367
0.0003080771712
0.0003077250731
0.0003073723346
0.0003070202947
0.0003086362558
0.0003083715565
0.0003080590395
0.0003077217843
0.0003073744592
0.00030702402
0.0003066722711
0.0003084519412
0.0003082691983
0.0003080103779
0.0003077037982
0.0003073707921
0.0003070264938
0.0003066761419
0.0003063287586
0.0003081578761
0.0003080877068
0.0003079095914
0.0003076556604
0.000307352806
0.0003070227685
0.0003066787031
0.0003063321928
0.0003059912706
0.0003077275469
0.0003077953588
0.0003077293804
0.0003075552522
0.0003073046973
0.0003070043167
0.0003066749778
0.0003063348122
0.0003059951705
0.0003056566347
0.0003071719257
0.0003073655535
0.0003074390115
0.0003073760308
0.0003072043764
0.0003069555096
0.0003066564095
0.0003063310869
0.0003059974988
0.0003056606511
0.0003053233377
0.0003067982034
0.0003066188074
0.0003070083621
0.0003070838284
0.0003070239618
0.0003068545775
0.0003066079807
0.0003063130716
0.0003059940063
0.0003056632704
0.0003053272667
0.0003049934166
0.0003062590258
0.0003064517514
0.0003062553005
0.0003066524223
0.0003067320795
0.0003066741338
0.0003065073106
0.0003062650212
0.0003059760784
0.0003056599526
0.0003053300316
0.000304997433
0.0003046670754
0.0003058921138
0.0003059142618
0.0003060862364
0.0003054031695
0.0003063019249
0.000306382397
0.0003063276818
0.0003061656898
0.0003059286682
0.0003056421119
0.0003053261898
0.0003050001396
0.0003046710917
0.0003043475444
0.0003055507259
0.0003055166162
0.0003050609957
0.0003057483409
0.000304201385
0.0003059535229
0.000306037633
0.0003059872251
0.0003058293369
0.0003055946727
0.0003053086984
0.0003049967054
0.0003046737111
0.0003043510078
0.0003040289448
0.0003051250242
0.0003051295935
0.0003046759812
0.0003053917899
0.0003024754405
0.0003034968686
0.0003056115238
0.0003056980204
0.0003056511341
0.0003054958652
0.0003052612883
0.0003049788647
0.0003046708589
0.0003043540637
0.0003040326119
0.0003037096176
0.000304857298
0.0003047143982
0.0003043490578
0.0003050606465
0.000300607644
0.0003019039868
0.0003027998318
0.0003052709508
0.0003053621622
0.000305318099
0.0003051634121
0.0003049318038
0.0003046536003
0.0003043508623
0.0003040347365
0.0003037126153
0.0003033920075
0.0003043105535
0.0003042139579
0.0003038803698
0.0003047110513
0.0002988220367
0.0002980272111
0.0003010949586
0.0003020855656
0.0003036150883
0.0003049370134
0.0003050290397
0.0003049864899
0.0003048346553
0.0003046073543
0.0003043340403
0.0003040318261
0.0003037146525
0.0003033947723
0.0003030783846
0.0003041734744
0.0003038397699
0.0003043882898
0.000300551852
0.000296644459
0.0002963737643
0.0002947645262
0.0003028833016
0.0003011728986
0.0003030142398
0.0003046040656
0.000304699759
0.0003046591301
0.000304510264
0.0003042870667
0.0003040146839
0.0003037116549
0.000303396926
0.0003030811786
0.0003027684288
0.0003036422422
0.0003033762041
0.0003040465817
0.0002994321403
0.0002950524213
0.0002934858785
0.00029885603
0.0002906345471
0.0003020077711
0.000300364336
0.0003017018316
0.0003042766475
0.0003043735924
0.0003043359029
0.0003041900636
0.0003039677395
0.0003036943381
0.000303393288
0.0003030831867
0.0003027711937
0.0003024618491
0.0003035072295
0.0003031537635
0.0003037289716
0.0002970460046
0.0002938059624
0.0002920616244
0.0002980634163
0.0002881895634
0.000300842541
0.0002993128146
0.0003009249922
0.0003024424077
0.0003039501025
0.0003040498705
0.0003040139854
0.0003038694267
0.0003036479466
0.0003033762623
0.0003030794323
0.0003027730563
0.0003024647885
0.0003021567827
0.0003029873769
0.000303394103
0.0002962638391
0.0002983378654
0.0002928827016
0.0002908375172
0.0002955865057
0.0002858933876
0.0002902651031
0.0003000996658
0.0003017866984
0.0003000580182
0.0003023922036
0.0003036278067
0.0003037280694
0.000303694047
0.000303550245
0.0003033299581
0.0003030617372
0.0003027693019
0.0003024667676
0.0003021598677
0.0003018527059
0.0003028471838
0.0003030818771
0.0002973790106
0.0002991904912
0.0002992350492
0.0002944408334
0.0002918189275
0.0002951413626
0.000297094346
0.0002881076362
0.0002891101467
0.0002833533799
0.0003016555565
0.0003011608787
0.000303305249
0.0003034082474
0.0003033750399
0.0003032331006
0.0003030155203
0.0003027514904
0.0003024628677
0.000302161643
0.0003018555872
0.0003015500552
0.0003023452591
0.0003027527418
0.0002986254112
0.0002984626335
0.0003005248727
0.0003010225773
0.0002938918187
0.0002960156999
0.0002904595749
0.0002931687632
0.0002963133447
0.0002979229321
0.0002980820136
0.0002865807619
0.0002808272257
0.0002852337784
0.0003022145829
0.0003029890067
0.0003030917142
0.0003030592343
0.0003029188374
0.0003027051571
0.0003024449688
0.0003021576267
0.0003018572752
0.0003015527036
0.0003012501984
0.0003024461621
0.0003002715239
0.0002997401461
0.00030157523
0.0003017122799
0.0002951398201
0.0002967459441
0.0002969010675
0.000291681994
0.0002892667253
0.0002924475702
0.0002948631882
0.0002975056705
0.0002973459486
0.0002991268993
0.0002995330724
0.000278693682
0.0002825725533
0.0002836287895
0.0002880493121
0.0003026730556
0.0003027773346
0.0003027458151
0.0003026087652
0.0003023983154
0.0003021393786
0.0003018529387
0.0003015541588
0.0003012529342
0.0003009531938
0.0003021218872
0.0003010853543
0.0003008365456
0.0002963224833
0.000296165992
0.0002979211276
0.0002983157174
0.0002910646726
0.0002935456287
0.0002905191213
0.0002940372797
0.0002956881945
0.0002958198311
0.0002989223867
0.0002985188912
0.0003002196318
0.0003004665487
0.0002766585676
0.000280439679
0.0002813468163
0.0002857591899
0.0002868593729
0.0002894242643
0.0002899345418
0.0003023616155
0.0003024647594
0.000302435481
0.0003023016907
0.0003020925215
0.0003018344287
0.0003015496768
0.0003012542438
0.000300955784
0.0003006582265
0.0003018186253
0.0003014988615
0.0002977138502
0.000297332037
0.0002990058274
0.0002992462541
0.0002928929462
0.0002945428132
0.0002947615576
0.0002923920692
0.0002953433432
0.0002951239003
0.0002968266781
0.0002971166105
0.0002998529235
0.0002996083058
0.000300880638
0.0003011975205
0.0002748610568
0.0002784810495
0.0002792635642
0.0002836694766
0.0002847360156
0.0002872706682
0.0002877582156
0.00028884926
0.000288333802
0.0002913014905
0.0002917707607
0.0003020477307
0.0003021539887
0.0003021276207
0.0003019951691
0.0003017869894
0.0003015309339
0.0003012496163
0.0003009569773
0.0003006608749
0.0003003638703
0.0002986460458
0.0002984066668
0.0002996647381
0.0002999736171
0.000294197991
0.0002939760452
0.0002956766984
0.0002959514095
0.0002933983633
0.0002936192905
0.0002965273452
0.0002962484432
0.0002978132397
0.0002980525314
0.0003005825274
0.0003002684389
0.0003014285758
0.0003017382696
0.000277518935
0.0002767173573
0.0002728864783
0.0002816904744
0.0002827024728
0.0002851963218
0.0002856830251
0.0002867419971
0.0002862556139
0.0002891606127
0.0002896159422
0.0002906766604
0.0002902210108
0.000292312674
0.0002925205918
0.0002930700139
0.000292866549
0.0003018447896
0.0003018201096
0.0003016892297
0.0003014834947
0.0003012307861
0.000300952117
0.0003006621264
0.0003003659949
0.0003000731231
0.0002993738453
0.0002990688372
0.0003002120357
0.0003005146282
0.0002953780931
0.0002951034694
0.0002966597967
0.0002968886693
0.0002945376036
0.0002948089386
0.0002974650124
0.0002972297079
0.0002984803577
0.0002987816115
0.0003011226654
0.000300816464
0.0002807840938
0.0002798422356
0.0002755142632
0.0002710946137
0.0002746514801
0.0002832617611
0.0002837557695
0.0002847191936
0.0002842840622
0.0002871315519
0.0002875695936
0.0002885939612
0.0002881477703
0.0002902035194
0.0002904015419
0.0002909294562
0.0002907303278
0.0002919847029
0.0002917805978
0.0002912446798
0.0002914456418
0.0002934558725
0.0002937180107
0.0002942592255
0.0002939997648
0.0003015380062
0.000301514403
0.0003013859387
0.0003011834924
0.0003009333741
0.0003006570041
0.0003003672173
0.0003000751603
0.0002997851989
0.0002999134304
0.0002996153198
0.0003006292682
0.0003009301145
0.0002963193692
0.0002960885467
0.0002973245864
0.0002976166143
0.0002955307136
0.0002957585384
0.0002981952566
0.0002978970297
0.0002990287321
0.0002993226517
0.0003012327361
0.0002827631251
0.0002823141695
0.0002818150388
0.0002813705069
0.0002788474667
0.0002693600254
0.0002736280439
0.0002728736144
0.0002779832867
0.0002852148318
0.0002856174833
0.0002865840797
0.0002861949906
0.0002881995169
0.0002883897687
0.000288894109
0.0002887040318
0.0002898941166
0.000289699412
0.0002891941404
0.0002893835772
0.0002913643257
0.000291611359
0.0002921273117
0.0002918768732
0.0002931781055
0.0002929204784
0.0002923949796
0.0002926479792
0.0002944449079
0.0002946598688
0.000295203412
0.0002949846967
0.000301211956
0.0003010863147
0.0003008857602
0.0003006375046
0.0003003620659
0.0003000760626
0.0002997871197
0.0002994986717
0.0003003291495
0.0003000319703
0.0003009118082
0.000297049497
0.0002967621549
0.0002978739794
0.0002981610887
0.0002962078433
0.0002964921005
0.0002987390617
0.0002984481107
0.0002994446259
0.0002997368283
0.0002846774878
0.0002842831891
0.0002837569627
0.0002808760619
0.0002833575709
0.0002804763208
0.0002677404846
0.0002711368725
0.0002718762262
0.0002770696883
0.0002762075455
0.0002796144399
0.0002800333896
0.0002863012778
0.0002864794806
0.0002869550954
0.0002867760777
0.0002879118256
0.0002877251827
0.0002872395562
0.0002874229685
0.0002893820347
0.0002896175138
0.0002901103871
0.0002898735402
0.0002911034098
0.0002908577153
0.0002903641725
0.0002906020964
0.000292365381
0.0002925674489
0.0002930794726
0.0002928721951
0.0002941236598
0.0002939113183
0.0002933892829
0.0002935974335
0.0002951185452
0.0002953935182
0.0002959378471
0.000295657519
0.0003007877967
0.0003005890467
0.0003003424499
0.0003000707366
0.0002997877018
0.0002995002724
0.0002992153168
0.0003006125335
0.0003003143356
0.0002975920797
0.0002973126248
0.0002982949663
0.0002985807369
0.0002967614564
0.0002970387577
0.0002991546935
0.0002988670894
0.0002997271076
0.0003000196884
0.000285848364
0.0002860240056
0.0002853850601
0.0002855581115
0.0002851141617
0.0002849430894
0.0002828563156
0.0002844782721
0.0002846521093
0.0002824599214
0.0002661368344
0.0002701853227
0.0002694564173
0.0002745169622
0.000275358092
0.0002787200501
0.0002791192965
0.0002778569178
0.0002782673982
0.0002816054039
0.0002820057562
0.0002875112987
0.0002877342049
0.0002881976543
0.0002879733511
0.0002891358454
0.0002889074385
0.0002884372079
0.0002886618022
0.0002904022112
0.0002905948204
0.0002910784679
0.0002908841416
0.0002920641855
0.000291862525
0.000291371718
0.0002915681689
0.000293052959
0.000293311954
0.0002938227262
0.0002935587545
0.0002948593756
0.0002945887391
0.0002940706327
0.0002943351574
0.0002956748649
0.0002959442209
0.0002964870364
0.0002962131111
0.0003004901519
0.0003002935846
0.0003000507131
0.0002997819684
0.0002995006798
0.0002992168011
0.0002989354543
0.0002980114368
0.0002977315162
0.0002985823667
0.000298865285
0.0002971823269
0.0002974567469
0.0002994367969
0.0002991501242
0.0002999025746
0.0003001947189
0.0002870576864
0.0002872762561
0.0002866092836
0.0002868255251
0.0002863811678
0.0002861673129
0.0002842219837
0.0002840562374
0.000285725022
0.0002859395463
0.0002836177009
0.000283774687
0.0002644982305
0.0002677711018
0.0002684988431
0.0002736914321
0.00027287181
0.0002762076329
0.0002765984973
0.0002770312421
0.0002774124732
0.0002807423007
0.0002811113372
0.0002799035865
0.0002802848758
0.0002827568096
0.0002829242439
0.0002833730541
0.0002831973834
0.0002885509748
0.0002887324663
0.0002891884942
0.0002890057222
0.0002901201369
0.0002899277897
0.0002894646896
0.0002896506339
0.0002911084448
0.0002913519274
0.0002918317332
0.0002915840596
0.0002928095055
0.0002925549343
0.0002920666011
0.0002923169523
0.0002936199016
0.0002938710968
0.0002943785803
0.0002941222629
0.0002954107185
0.0002951471251
0.0002946305322
0.0002948879264
0.0002961008286
0.000296367507
0.0002969075285
0.000296637154
0.0003000016441
0.0002997616539
0.0002994946553
0.0002992168884
0.0002989368804
0.0002986565232
0.0002982982842
0.0002980181016
0.0002987597545
0.000299041305
0.0002974684758
0.000297742663
0.0002996127587
0.0002993255621
0.000288101437
0.0002882799017
0.0002876595245
0.0002878350497
0.0002873952908
0.0002872222394
0.0002855113999
0.0002852998732
0.0002867918811
0.0002869637683
0.0002848698641
0.0002850733581
0.0002660716418
0.0002668042725
0.0002712457499
0.0002720501507
0.0002757856273
0.0002754069865
0.0002746073878
0.0002749892301
0.0002782955416
0.0002786368714
0.0002791000588
0.0002794461034
0.0002819105284
0.0002820703376
0.0002825004049
0.0002823404502
0.0002810972219
0.0002812549064
0.0002816749329
0.0002815175685
0.0002840313828
0.0002842341783
0.0002846656134
0.0002844475093
0.0002892730408
0.0002895026118
0.000289956457
0.00028972156
0.0002908794268
0.0002906392037
0.0002901775879
0.000290413911
0.0002916863305
0.0002919224789
0.0002923966385
0.0002921574924
0.0002933720243
0.0002931237104
0.0002926358429
0.0002928798203
0.0002940520935
0.0002943007567
0.0002948061447
0.0002945517481
0.0002958363912
0.0002955744858
0.000295059057
0.0002953154617
0.0002963912848
0.0002966575557
0.0002971957147
0.0002969253692
0.0002997124393
0.0002994746319
0.0002992108348
0.0002989369386
0.0002986579784
0.0002983774175
0.0002984781167
0.0002981973812
0.0002988601045
0.0002991406946
0.0002976476972
0.0002979208948
0.0002994251845
0.0002888294111
0.0002890570904
0.0002883920679
0.000288617186
0.0002881816472
0.0002879601088
0.0002865419956
0.0002863663831
0.0002875357459
0.00028775385
0.000285945629
0.0002861139074
0.0002696120064
0.0002704300568
0.0002730279812
0.0002734015288
0.0002741837525
0.0002738114854
0.0002778439666
0.0002775098546
0.0002767338301
0.0002770665742
0.0002795057371
0.0002796570479
0.0002799092908
0.0002800600196
0.0002802964882
0.000280448905
0.0002808554855
0.0002807038545
0.0002831973834
0.0002833975595
0.000283814501
0.0002836145868
0.0002824021212
0.0002825983684
0.0002829984005
0.0002828061697
0.0002851203317
0.0002852883772
0.0002857039508
0.0002855241764
0.0002898626844
0.0002900852996
0.0002905359142
0.0002903077402
0.0002914535871
0.0002912199125
0.0002907606249
0.0002909906325
0.0002921272535
0.0002923592983
0.0002928322647
0.0002925946901
0.0002938055841
0.0002935601224
0.0002930728369
0.0002933155629
0.0002943474392
0.0002945953456
0.0002951001807
0.0002948460751
0.0002961279533
0.0002958672703
0.0002953532094
0.0002956089447
0.0002965735039
0.000296838698
0.0002973750816
0.0002971060749
0.0002991900838
0.0002989306522
0.0002986578911
0.000298378669
0.0002981003199
0.0002985796891
0.0002982994483
0.0002989100758
0.0002977488621
0.000298022147
0.0002894238278
0.0002896433289
0.0002889916359
0.0002892083721
0.0002887775481
0.0002885637223
0.0002873319609
0.0002871155739
0.0002881417167
0.000288352865
0.0002867006406
0.0002869143209
0.0002714482835
0.0002718294563
0.0002726131061
0.0002722429927
0.0002752010769
0.0002755291353
0.0002762919758
0.0002759564086
0.0002792766318
0.0002791315201
0.000278731517
0.0002788822167
0.0002779745555
0.0002781191142
0.0002785073593
0.0002783636446
0.0002808359859
0.0002810248407
0.0002812251914
0.0002814137843
0.0002816146007
0.0002818058128
0.0002822005772
0.000282006542
0.0002843043185
0.000284467591
0.0002848731529
0.0002847108699
0.0002835176128
0.0002836766071
0.0002840705565
0.0002839084773
0.000285885937
0.0002860936802
0.0002865010465
0.0002862896363
0.0002903126879
0.0002905334404
0.0002909821633
0.0002907567541
0.0002918956452
0.0002916654048
0.0002912080963
0.0002914356883
0.0002924276341
0.0002926600573
0.0002931336348
0.0002928955073
0.0002941017447
0.0002938578255
0.0002933740616
0.0002936153905
0.0002945331507
0.0002947805333
0.0002952850482
0.00029503103
0.0002963108709
0.0002960507991
0.0002955382515
0.0002957932011
0.0002966776374
0.0002969423949
0.0002974773815
0.0002972088696
0.0002986516338
0.00029837896
0.0002981014841
0.0002978265693
0.0002986304462
0.0002983505838
0.0002977996774
0.0002980731952
0.0002898771199
0.0002900941472
0.0002894494392
0.0002896627702
0.0002892365155
0.0002890251635
0.0002879347594
0.0002877257357
0.0002886051079
0.0002888146264
0.0002873139456
0.0002875201171
0.0002736912866
0.000274012069
0.000274765247
0.0002744474332
0.0002764744568
0.0002766188409
0.0002769935818
0.0002768531849
0.0002777508053
0.0002776066249
0.0002772150619
0.0002773602318
0.0002806432312
0.0002804596734
0.0002800768416
0.0002802637464
0.0002793326857
0.0002795133914
0.0002798898495
0.0002797084744
0.0002819758956
0.00028212709
0.0002823555842
0.0002825082047
0.000282740104
0.0002828951983
0.0002832814353
0.0002831264283
0.0002850857272
0.0002852896578
0.0002856904757
0.0002854821796
0.0002843009424
0.0002845015551
0.0002848937584
0.0002846905554
0.0002865071874
0.0002867082658
0.0002871111501
0.0002869068703
0.0002906215086
0.0002908417082
0.0002912897908
0.0002910642943
0.0002921982086
0.0002919689869
0.0002915142686
0.0002917412203
0.0002926167508
0.0002928492613
0.0002933237411
0.0002930859046
0.0002942875726
0.0002940446138
0.0002935628872
0.0002938029065
0.0002946399036
0.0002948869951
0.0002953915391
0.0002951370843
0.0002964159939
0.0002961559221
0.0002956441895
0.0002958983823
0.0002967306064
0.0002969947236
0.0002975287207
0.0002972606453
0.0002983725281
0.0002981018042
0.0002978276461
0.0002975561365
0.000297821156
0.0002980950521
0.000290187716
0.0002904029971
0.0002897625091
0.00028997357
0.000289551419
0.000289341755
0.0002883980051
0.0002881921246
0.000288923562
0.0002891315962
0.0002877837396
0.0002879863314
0.0002750000567
0.0002751414431
0.0002755172027
0.0002753780573
0.0002762532386
0.0002761116775
0.0002757346665
0.0002758760529
0.0002778652706
0.0002780420473
0.0002784095705
0.0002782306983
0.0002791458974
0.0002789667342
0.0002785940305
0.0002787776175
0.0002817508357
0.0002816026681
0.0002812300809
0.0002813792089
0.0002804978867
0.0002806430275
0.0002810111037
0.0002808643912
0.0002827834687
0.0002829769219
0.0002831579477
0.0002833533508
0.0002835360065
0.0002837319043
0.0002841139794
0.0002839155204
0.0002857155923
0.0002859127417
0.0002863080008
0.0002861086396
0.0002849398297
0.0002851335739
0.0002855215571
0.0002853259502
0.0002869818418
0.0002871803881
0.0002875807986
0.0002873814665
0.0002908164461
0.0002910365292
0.0002914827201
0.0002912585915
0.0002923871507
0.0002921594714
0.0002917064703
0.0002919319668
0.0002927244059
0.0002929584589
0.000293432211
0.0002931950439
0.0002943945874
0.0002941514831
0.0002936706296
0.0002939100086
0.0002946939785
0.0002949406626
0.0002954452648
0.0002951909555
0.0002964690502
0.0002962092112
0.0002956975659
0.0002959512058
0.0002967530745
0.0002970168716
0.0002975500538
0.0002972825896
0.0002978274424
0.0002975571842
0.0002972883231
0.0002903827117
0.0002905986912
0.0002899583778
0.0002901691769
0.0002897489467
0.0002895399521
0.0002887166629
0.0002885110443
0.0002891237964
0.0002893316559
0.0002881041728
0.0002883064735
0.0002764257079
0.000276600942
0.0002769604034
0.0002767852857
0.0002776765614
0.0002775021712
0.0002771430591
0.0002773180022
0.0002790568687
0.0002791994484
0.0002795567852
0.0002794116153
0.0002802791423
0.0002801356313
0.0002797740162
0.0002799182548
0.0002826048294
0.000282412977
0.0002820461232
0.0002822355018
0.0002813237079
0.0002815102926
0.0002818708599
0.0002816833148
0.0002834413899
0.0002836262283
0.000283809728
0.0002839962253
0.000284181966
0.0002843711409
0.0002847496071
0.000284558686
0.000286197348
0.0002863906848
0.0002867829171
0.0002865866991
0.0002854302584
0.0002856203064
0.0002860035747
0.000285811926
0.0002873069025
0.0002875054488
0.0002879039967
0.0002877034713
0.0002909285249
0.0002911484335
0.0002915935765
0.0002913702338
0.0002924955916
0.0002922677086
0.0002918161044
0.0002920412517
0.0002927789174
0.0002930134651
0.0002934871591
0.0002932501957
0.0002944486914
0.0002942057035
0.0002937252284
0.0002939641709
0.0002947168832
0.0002949634509
0.0002954681404
0.0002952137729
0.0002964915475
0.0002962317667
0.0002957202378
0.0002959737321
0.0002967602341
0.0002970239148
0.0002975568059
0.0002972895163
0.0002972898947
0.0002970230998
0.0002904950816
0.0002907104208
0.0002900701365
0.0002902811975
0.0002898612584
0.0002896536025
0.0002889175666
0.0002887117153
0.0002892386692
0.0002894456265
0.0002883059205
0.0002885073191
0.0002776471083
0.0002777848858
0.0002781357325
0.0002779960632
0.0002788415004
0.0002787008998
0.0002783493837
0.0002784895478
0.0002799074282
0.0002800894727
0.0002804414544
0.0002802584786
0.0002811524319
0.0002809684956
0.0002806126431
0.0002807974233
0.0002832592581
0.0002830752637
0.0002827119315
0.0002828943252
0.0002819965885
0.0002821738308
0.000282532681
0.0002823519462
0.0002839442459
0.0002841260284
0.0002843095572
0.0002844936389
0.0002846794669
0.0002848657314
0.0002852410253
0.0002850530727
0.0002865260176
0.0002867194416
0.0002871095494
0.0002869134187
0.0002857660002
0.000285954331
0.0002863351256
0.00028614435
0.0002875127248
0.000287709554
0.0002881053952
0.0002879071399
0.0002909852774
0.0002912050404
0.0002916499507
0.0002914267243
0.0002925491135
0.0002923224238
0.000291871751
0.0002920961997
0.000292802375
0.0002930374758
0.000293510675
0.0002932739735
0.0002944717126
0.0002942290157
0.0002937486279
0.0002939875121
0.0002947242756
0.0002949708432
0.0002954755328
0.0002952212526
0.0002964986779
0.0002962389262
0.0002957275137
0.0002959810081
0.000296761049
0.0002970243513
0.0002967600012
0.000290551834
0.0002907670278
0.0002901266271
0.0002903381537
0.0002899175161
0.0002897102677
0.0002890326141
0.0002888269082
0.0002892962657
0.0002895030193
0.0002884202986
0.0002886224829
0.0002785230463
0.0002787009289
0.0002790457511
0.0002788661222
0.0002797381021
0.0002795571054
0.0002792119922
0.0002793913009
0.0002806018747
0.0002807764686
0.0002811232407
0.0002809487341
0.00028182182
0.0002816455672
0.0002812962048
0.0002814721374
0.0002837632783
0.0002835834748
0.0002832261671
0.0002834044863
0.0002825168776
0.000282692723
0.0002830472949
0.0002828696161
0.0002842907561
0.0002844721312
0.0002846545249
0.0002848377917
0.0002850216988
0.0002852068283
0.0002855793282
0.000285392598
0.0002867342264
0.0002869253804
0.0002873151971
0.0002871197648
0.0002859776432
0.0002861646935
0.0002865433344
0.0002863541013
0.000287629111
0.0002878257656
0.0002882208792
0.0002880228276
0.0002910096955
0.000291229313
0.000291673874
0.0002914509969
0.0002925723093
0.0002923456486
0.0002918959071
0.000292120123
0.0002928104368
0.0002930454793
0.0002935184748
0.0002932817733
0.0002944792795
0.0002942366991
0.0002937562531
0.0002939951955
0.0002947253815
0.000294971629
0.0002954766096
0.0002952221257
0.0002964994637
0.000296239712
0.0002957280376
0.0002959818812
0.0002964986488
0.0002905759611
0.0002907914168
0.000290150725
0.0002903623681
0.0002899415558
0.0002897342201
0.0002890909673
0.0002888855815
0.0002893212077
0.0002895276411
0.000288480107
0.0002886811562
0.0002792403684
0.000279409549
0.0002797477937
0.0002795774781
0.000280429289
0.0002802560921
0.0002799159847
0.0002800863003
0.0002811380837
0.0002813082829
0.0002816498454
0.0002814788604
0.0002823426621
0.0002821681846
0.0002818216162
0.0002819940855
0.000284110778
0.0002839321969
0.0002835789637
0.0002837553038
0.000282877998
0.0002830518351
0.0002834026818
0.0002832270693
0.0002845112176
0.0002846917778
0.0002848730655
0.0002850547899
0.000285237591
0.0002854214981
0.0002857919899
0.0002856068313
0.000286853232
0.0002870449971
0.0002874332422
0.0002872378682
0.0002860985405
0.0002862858237
0.0002866635332
0.0002864742419
0.0002876891231
0.0002878857194
0.0002882806875
0.0002880822867
0.0002910179319
0.000291237171
0.0002916817029
0.0002914586221
0.0002925802837
0.0002923537104
0.0002919038525
0.0002921285341
0.0002928118338
0.0002930465271
0.0002935194352
0.0002932826173
0.0002944804146
0.0002942376595
0.0002937571262
0.0002939963015
0.0002947244211
0.0002949706977
0.0002954748925
0.0002952212817
0.0002962389262
0.0002957272227
0.0002959808626
0.0002905837318
0.0002907997114
0.0002901580883
0.0002903697605
0.0002899486572
0.00028974202
0.0002891161421
0.0002889105817
0.0002893293859
0.0002895354992
0.0002885051363
0.0002887069713
0.0002797956113
0.0002799607755
0.0002802939271
0.000280126842
0.0002809680591
0.0002807982673
0.0002804613614
0.0002806293196
0.0002815081971
0.0002816761844
0.0002820153604
0.0002818453941
0.000282705063
0.0002825317788
0.0002821868402
0.0002823590185
0.0002843315888
0.0002841534151
0.0002838016953
0.0002839771623
0.0002831080346
0.0002832804457
0.0002836268686
0.0002834537881
0.0002846388379
0.0002848188451
0.0002849990269
0.0002851796744
0.0002853616897
0.0002855454513
0.0002859139349
0.0002857296786
0.0002869132732
0.0002871051547
0.0002874939528
0.0002872988989
0.0002861607645
0.0002863478148
0.0002867236035
0.000286535651
0.0002877152583
0.0002879104577
0.0002883060661
0.0002881073742
0.0002910192416
0.000291238277
0.0002916823141
0.0002914595243
0.0002925817389
0.0002923553693
0.0002919047838
0.0002921295236
0.0002928113681
0.0002930453338
0.0002935179509
0.0002932813077
0.0002944798034
0.0002942368737
0.0002937560203
0.0002939953411
0.0002905842557
0.0002908006427
0.0002901580592
0.0002903701097
0.0002899492683
0.0002897423692
0.0002891241456
0.000288919342
0.0002893295605
0.0002895364596
0.0002885143622
0.0002887150622
0.0002801796363
0.0002803441894
0.0002806758566
0.0002805098484
0.0002813405881
0.0002811744343
0.0002808417485
0.0002810074948
0.0002817436762
0.0002819116344
0.0002822502574
0.0002820799418
0.000282936031
0.0002827637363
0.0002824210096
0.0002825922274
0.0002844597038
0.0002842821996
0.0002839305962
0.0002841059468
0.0002832420578
0.0002834130428
0.0002837568754
0.0002835846099
0.0002847040305
0.0002848834265
0.0002850627643
0.0002852430625
0.0002854249324
0.0002856086066
0.0002859756642
0.0002857923391
0.0002869395539
0.0002871323377
0.0002875210193
0.0002873259655
0.0002861873072
0.000286374503
0.0002867498843
0.0002865619317
0.0002877240768
0.0002879201202
0.0002883143025
0.0002881161927
0.0002910183684
0.0002912381315
0.0002916818194
0.0002914592333
0.0002925813897
0.0002923546708
0.0002919043473
0.0002921288833
0.0002905833826
0.0002907997114
0.0002901580592
0.0002903694985
0.0002899486572
0.0002897420491
0.0002891245531
0.0002889195166
0.0002893288329
0.0002895352663
0.0002885147405
0.0002887164301
0.0002804255055
0.0002805898839
0.0002809196594
0.0002807548735
0.0002815775806
0.0002814123582
0.0002810838632
0.0002812479215
0.0002818817156
0.0002820488589
0.0002823872783
0.0002822173992
0.0002830698213
0.000282897905
0.000282557914
0.0002827271528
0.0002845252748
0.000284347916
0.0002839967201
0.0002841717796
0.0002833103063
0.0002834802144
0.000283822912
0.0002836513158
0.000284732756
0.0002849115699
0.000285090442
0.0002852705657
0.0002854524646
0.0002856359934
0.0002860020613
0.0002858193766
0.0002869483142
0.0002871407487
0.0002875292848
0.0002873352787
0.0002861951943
0.0002863821283
0.0002867578587
0.0002865694987
0.0002877248044
0.0002879216336
0.0002883156412
0.0002881175024
0.0002891231852
0.0002889189345
0.0002885147696
0.0002887153823
0.0002805681725
0.0002807325218
0.0002810610458
0.0002808969002
0.0002817152126
0.0002815503976
0.0002812237653
0.0002813866595
0.0002819527872
0.0002821198723
0.0002824584662
0.0002822882379
0.0002831390593
0.0002829670557
0.0002826279961
0.000282796711
0.000284553942
0.0002843764087
0.0002840253583
0.0002842004178
0.0002833404287
0.000283510075
0.0002838522778
0.0002836804779
0.0002847428259
0.0002849209704
0.0002850999299
0.000285280199
0.0002854617778
0.0002856449282
0.0002860101813
0.000285827904
0.0002869491873
0.0002871420875
0.0002875303908
0.0002873358899
0.0002861965331
0.0002863836125
0.0002867591684
0.000286570692
0.0002877242223
0.000287920906
0.0002883147972
0.0002881174732
0.0002806420671
0.0002808054851
0.000281132845
0.0002809693106
0.0002817864588
0.0002816210617
0.000281295157
0.0002814574982
0.0002819839574
0.0002821509261
0.0002824897529
0.0002823196992
0.0002831693273
0.0002829979348
0.000282658817
0.0002828270372
0.0002845641284
0.0002843865659
0.0002840358648
0.0002842106333
0.0002833512553
0.0002835209307
0.0002838624641
0.0002836909844
0.0002847439318
0.0002849223383
0.0002851012978
0.0002852819161
0.0002854631166
0.0002856457431
0.0002860114328
0.0002858288353
0.0002869491873
0.0002871413308
0.000287529605
0.0002873359772
0.0002861962421
0.0002863829432
0.0002867589064
0.0002865704591
0.0002806743432
0.0002808374993
0.0002811641898
0.0002810007718
0.0002818178036
0.0002816521446
0.0002813261235
0.0002814883483
0.0002819943184
0.0002821614326
0.0002825003467
0.0002823309042
0.0002831798338
0.000283008616
0.0002826696727
0.0002828379511
0.0002845659037
0.0002843889524
0.0002840374073
0.0002842128742
0.000283352827
0.0002835225314
0.0002838633372
0.0002836922067
0.0002847427968
0.0002849207958
0.0002851003665
0.0002852806356
0.0002854620689
0.0002856445499
0.0002860109671
0.0002858278458
0.0002806851116
0.0002808481222
0.0002811753075
0.000281012035
0.0002818288631
0.000281663175
0.0002813369501
0.0002814992331
0.0002819954825
0.000282162684
0.0002825023257
0.0002823319519
0.0002831816673
0.0002830107987
0.0002826712152