/*--------------------------------*- C++ -*----------------------------------*\
  =========                 |
  \\      /  F ield         | OpenFOAM: The Open Source CFD Toolbox
   \\    /   O peration     | Website:  https://openfoam.org
    \\  /    A nd           | Version:  8
     \\/     M anipulation  |
\*---------------------------------------------------------------------------*/






FoamFile
{
    version     2.0;
    format      ascii;
    class       volScalarField;
    location    "0";
    object      pDDES;
}
// * * * * * * * * * * * * * * * * * * * * * * * * * * * * * * * * * * * * * //

dimensions      [0 2 -2 0 0 0 0];


internalField   nonuniform List<scalar> 
19484
(
2.03224572e-05
2.541767026e-05
1.841160338e-05
2.822661918e-05
2.34330364e-05
2.83789268e-05
1.389649606e-05
1.65482943e-05
2.636707541e-05
2.977577969e-05
2.150020737e-05
2.62188023e-05
3.062020551e-05
1.040260759e-05
1.473692282e-05
2.858983862e-05
3.171087155e-05
3.174226003e-05
2.42674214e-05
1.962338865e-05
2.441146171e-05
2.777060035e-05
3.276640928e-05
3.273474795e-05
1.296771643e-05
7.009651654e-06
3.073644257e-05
3.070583261e-05
3.277994983e-05
3.326263322e-05
2.251230762e-05
2.582288289e-05
1.779930608e-05
2.237236913e-05
2.661816688e-05
2.971066351e-05
2.974086419e-05
3.427870979e-05
3.379499321e-05
1.123393668e-05
3.698492947e-06
9.524228517e-06
3.225019464e-05
3.177563121e-05
3.405635289e-05
3.446892151e-05
2.47063399e-05
2.777604641e-05
2.780539398e-05
2.053415665e-05
2.06699242e-05
1.602411248e-05
2.393438081e-05
2.876984581e-05
2.874019992e-05
3.079462113e-05
3.125950025e-05
3.547591405e-05
3.506384382e-05
4.661276591e-07
6.17466776e-06
7.839524187e-06
1.42879735e-05
3.346427548e-05
3.306189683e-05
3.474273035e-05
3.524841304e-05
2.686221887e-05
2.683344792e-05
2.887589653e-05
2.932720054e-05
1.888445149e-05
2.210394996e-05
2.284935726e-05
1.875296039e-05
2.589761789e-05
2.59261451e-05
3.028651554e-05
2.982706974e-05
3.208791895e-05
3.248064604e-05
3.625801764e-05
3.574268339e-05
-2.660947985e-06
2.90665389e-06
4.531891591e-06
1.091167724e-05
1.258486373e-05
1.702016198e-05
1.714871541e-05
3.425348768e-05
3.375505912e-05
3.512165131e-05
3.561883568e-05
2.838237924e-05
2.793796375e-05
3.018506686e-05
3.056357673e-05
2.10580838e-05
2.40750087e-05
2.41025773e-05
2.501497875e-05
2.498707545e-05
2.033799319e-05
2.702051643e-05
2.745343591e-05
3.151348938e-05
3.112413833e-05
3.278516306e-05
3.327512241e-05
3.662052404e-05
3.611702414e-05
-2.615603591e-07
1.305847491e-06
-5.630214218e-06
7.658947652e-06
9.270590454e-06
1.365696698e-05
1.378067827e-05
1.544834595e-05
1.532198439e-05
1.862528006e-05
1.93263204e-05
3.462883615e-05
3.413857121e-05
3.632649532e-05
3.681601083e-05
2.963000952e-05
2.925491026e-05
3.090133032e-05
3.137008389e-05
2.322844375e-05
2.320144995e-05
2.521487113e-05
2.563547241e-05
2.653680531e-05
2.611253512e-05
2.233460327e-05
2.236102046e-05
2.833461258e-05
2.871054494e-05
3.231218216e-05
3.183008812e-05
3.31702031e-05
3.365297744e-05
3.78067889e-05
3.730917888e-05
4.52011227e-06
-1.78758421e-06
6.074354133e-06
-3.268676892e-06
-8.463246559e-06
1.044270084e-05
1.056031306e-05
1.215127941e-05
1.203096417e-05
1.529986002e-05
1.597212395e-05
1.76327776e-05
1.694620732e-05
2.066104207e-05
2.068702634e-05
2.150580804e-05
2.147974737e-05
3.583899161e-05
3.535562792e-05
3.674249092e-05
3.723046757e-05
3.044805817e-05
2.998250056e-05
3.12892189e-05
3.175099482e-05
2.475640758e-05
2.435055649e-05
2.655778735e-05
2.691907503e-05
2.779716851e-05
2.74340473e-05
2.349792885e-05
2.389851034e-05
2.907501585e-05
2.953340481e-05
3.269346053e-05
3.221901352e-05
3.439934881e-05
3.48751164e-05
3.821874998e-05
3.772299169e-05
7.382526292e-06
7.494755209e-06
2.998441005e-06
9.008404959e-06
8.893279301e-06
1.513385996e-06
-4.707773314e-06
-1.121013338e-05
-6.121262231e-06
1.213016003e-05
1.276776675e-05
1.434963269e-05
1.369447091e-05
1.738203719e-05
1.740665721e-05
1.821490878e-05
1.81901778e-05
1.985177369e-05
1.9826477e-05
1.899912058e-05
1.902428085e-05
2.185570156e-05
2.223712909e-05
2.304671216e-05
2.266081538e-05
3.625716272e-05
3.577619646e-05
3.700938396e-05
3.749743337e-05
3.082883632e-05
3.037117312e-05
3.254221156e-05
3.300035678e-05
2.605548616e-05
2.570073048e-05
2.731388304e-05
2.775260145e-05
2.862578913e-05
2.818308531e-05
2.485577352e-05
2.520342241e-05
2.946744826e-05
2.991815927e-05
3.39280632e-05
3.346248195e-05
3.48255453e-05
3.529892274e-05
3.848432971e-05
3.798814942e-05
9.14411612e-06
6.015031431e-06
9.739455891e-06
5.904958471e-06
1.12289872e-05
1.061223793e-05
4.458912372e-06
4.566168627e-06
7.479249575e-08
-1.277249612e-05
-8.88267823e-06
-7.513004675e-06
-1.337217782e-06
1.426817744e-05
1.429156873e-05
1.505220916e-05
1.502863051e-05
1.661472561e-05
1.659055852e-05
1.580291064e-05
1.582694313e-05
1.862123463e-05
1.89987768e-05
1.979398439e-05
1.941346636e-05
2.141507321e-05
2.102502913e-05
2.021357795e-05
2.059821054e-05
2.321705506e-05
2.356018558e-05
2.43659324e-05
2.401966776e-05
3.652550731e-05
3.604630183e-05
3.716629726e-05
3.765354268e-05
3.208659473e-05
3.163519432e-05
3.297900548e-05
3.34344877e-05
2.68931999e-05
2.646210487e-05
2.771172512e-05
2.814420986e-05
2.902182132e-05
2.857891013e-05
2.561631482e-05
2.604461588e-05
3.074321648e-05
3.118708628e-05
3.435694816e-05
3.389400808e-05
3.510016177e-05
3.55711054e-05
3.863922393e-05
3.8144266e-05
1.133971455e-05
1.136156607e-05
8.29496912e-06
1.20707673e-05
1.204852106e-05
7.713307241e-06
1.353954758e-05
1.351662831e-05
1.276940475e-05
1.279213211e-05
3.150509428e-06
6.301800568e-06
6.876064162e-06
3.045203357e-06
-1.541456368e-05
-1.022919241e-05
-1.155377504e-05
-4.079096925e-06
-2.71764884e-06
1.659214604e-06
1.762864258e-06
1.555720519e-05
1.590441934e-05
1.66611153e-05
1.630225415e-05
1.820995385e-05
1.783770313e-05
1.706550574e-05
1.743259782e-05
2.004138878e-05
2.03573727e-05
2.114029121e-05
2.08222591e-05
2.27380915e-05
2.24096475e-05
2.161266821e-05
2.193464752e-05
2.398496144e-05
2.439568925e-05
2.520964154e-05
2.479468276e-05
3.668317731e-05
3.620520874e-05
3.724761336e-05
3.773429853e-05
3.252545866e-05
3.20761319e-05
3.326050501e-05
3.37146339e-05
2.728731306e-05
2.686502194e-05
2.901062908e-05
2.943553591e-05
3.030108201e-05
2.986576146e-05
2.602970198e-05
2.644655979e-05
3.118723907e-05
3.162974826e-05
3.463375833e-05
3.417220796e-05
3.52620591e-05
3.573142749e-05
3.871977242e-05
3.822472354e-05
1.267973221e-05
1.068252459e-05
1.298261304e-05
1.066128789e-05
1.369428992e-05
1.33612848e-05
9.986799341e-06
9.965586287e-06
1.516185603e-05
1.481077561e-05
1.407025593e-05
1.442001303e-05
5.487547242e-06
8.59976808e-06
8.62062916e-06
9.308355402e-06
9.287471585e-06
4.925235771e-06
-1.803967098e-05
-1.416619125e-05
-1.286008319e-05
-5.420221896e-06
-6.734911494e-06
-1.042724648e-06
-9.426819361e-07
3.993950486e-07
2.980653449e-07
3.56303326e-06
4.116695436e-06
1.700471694e-05
1.730664917e-05
1.805379907e-05
1.774373413e-05
1.957965833e-05
1.926670666e-05
1.850454464e-05
1.881275966e-05
2.083794061e-05
2.123088962e-05
2.200886593e-05
2.161211887e-05
2.359090104e-05
2.318580118e-05
2.239476999e-05
2.279608634e-05
2.440770731e-05
2.481007687e-05
2.562089867e-05
2.521378519e-05
3.676504639e-05
3.628817285e-05
3.728257798e-05
3.776936865e-05
3.280943929e-05
3.236082557e-05
3.342689524e-05
3.387966717e-05
2.859044616e-05
2.817595851e-05
2.946348468e-05
2.988639244e-05
3.074820415e-05
3.031325468e-05
2.735746784e-05
2.77629515e-05
3.147417374e-05
3.191522046e-05
3.479749648e-05
3.433683378e-05
3.534692951e-05
3.581537385e-05
3.875469702e-05
3.82593571e-05
1.417079875e-05
1.232799332e-05
1.444903683e-05
1.201579744e-05
1.514268024e-05
1.484312179e-05
1.165676349e-05
1.133686965e-05
1.657665052e-05
1.627698657e-05
1.554656956e-05
1.58499297e-05
7.964285032e-06
7.943695891e-06
1.000155135e-05
1.031198553e-05
1.098308167e-05
1.066694949e-05
7.269547496e-06
7.290177109e-06
-1.676822285e-05
-1.546750173e-05
-9.300363672e-06
-8.025149327e-06
-2.368939249e-06
-2.270274763e-06
-3.573851473e-06
-3.671151717e-06
9.043072851e-07
1.444992677e-06
2.774293989e-06
2.227699497e-06
5.937608421e-06
5.958061593e-06
6.629483323e-06
6.609126103e-06
1.784687629e-05
1.821273509e-05
1.89506427e-05
1.857789721e-05
2.04599055e-05
2.007153671e-05
1.931516999e-05
1.969875302e-05
2.127586231e-05
2.166065497e-05
2.243544986e-05
2.204616794e-05
2.400994526e-05
2.361262341e-05
2.282523019e-05
2.321888496e-05
2.575650433e-05
2.615244375e-05
2.695283911e-05
2.655239041e-05
3.680046939e-05
3.632401422e-05
3.729378659e-05
3.777998791e-05
3.297661169e-05
3.252833631e-05
3.351280247e-05
3.396573447e-05
2.90462358e-05
2.863303234e-05
2.975692769e-05
3.017737436e-05
3.103616837e-05
3.060346717e-05
2.781700096e-05
2.822291754e-05
3.164336522e-05
3.208385533e-05
3.488249058e-05
3.442228626e-05
3.538381861e-05
3.585208833e-05
3.876470146e-05
3.827030014e-05
1.506046647e-05
1.379005971e-05
1.539504046e-05
1.35145583e-05
1.60832642e-05
1.573191912e-05
1.312713539e-05
1.285358849e-05
1.749006879e-05
1.712738049e-05
1.641897325e-05
1.678298941e-05
9.662724551e-06
9.354302165e-06
1.154550591e-05
1.181511561e-05
1.24674425e-05
1.219909791e-05
8.701681509e-06
9.008953384e-06
-1.184608664e-05
-1.057332975e-05
-6.203924386e-06
-6.110467439e-06
-4.855295174e-06
-4.949883078e-06
-4.039059434e-07
1.31303949e-07
-1.166497555e-06
-1.692586011e-06
3.33644175e-06
3.356400612e-06
4.005496066e-06
3.985752301e-06
5.306463208e-06
5.286286523e-06
4.634670404e-06
4.654812074e-06
7.389158327e-06
7.700636161e-06
8.359723324e-06
8.047472875e-06
1.828989662e-05
1.865474042e-05
1.938810965e-05
1.902123404e-05
2.089473855e-05
2.051330011e-05
1.976088242e-05
2.013745143e-05
2.266907904e-05
2.304720874e-05
2.381000013e-05
2.342799598e-05
2.536298416e-05
2.497197784e-05
2.419586781e-05
2.458215386e-05
2.622486863e-05
2.661971303e-05
2.741652679e-05
2.701738049e-05
3.681156522e-05
3.63356703e-05
3.729470336e-05
3.778098471e-05
3.306315557e-05
3.261566962e-05
3.354972432e-05
3.400234709e-05
2.934049917e-05
2.892881275e-05
2.992952977e-05
3.035000918e-05
3.120685142e-05
3.077546353e-05
2.811414743e-05
2.851867612e-05
3.173141158e-05
3.217126505e-05
3.491935786e-05
3.445903712e-05
3.539604586e-05
3.586360253e-05
3.876573101e-05
3.827072942e-05
1.550408706e-05
1.473299108e-05
1.583547783e-05
1.439342032e-05
1.651796811e-05
1.617368252e-05
1.407407763e-05
1.374163276e-05
1.792920011e-05
1.75696332e-05
1.686629184e-05
1.721943954e-05
1.117193278e-05
1.0904183e-05
1.245142266e-05
1.27795638e-05
1.342352971e-05
1.309405252e-05
1.026612699e-05
1.052378047e-05
-8.701081242e-06
-8.607665222e-06
-7.357750746e-06
-7.451748843e-06
-4.194786015e-06
-3.688720199e-06
-2.443865696e-06
-2.959111953e-06
2.048951956e-06
2.068609774e-06
2.694842806e-06
2.714498805e-06
1.43528257e-06
1.415891461e-06
7.81209053e-07
8.006674079e-07
4.832040759e-06
5.136904292e-06
5.771473752e-06
5.467368283e-06
7.047507552e-06
6.744419807e-06
6.108332855e-06
6.411180038e-06
8.979332961e-06
9.244438843e-06
9.883514394e-06
9.62246213e-06
1.972894643e-05
2.008743104e-05
2.081217826e-05
2.044874054e-05
2.229292295e-05
2.191884778e-05
2.117916301e-05
2.15477703e-05
2.315300662e-05
2.352926458e-05
2.428831067e-05
2.390729605e-05
2.583400055e-05
2.544462768e-05
2.467137529e-05
2.505707744e-05
2.652580224e-05
2.691915688e-05
2.771374238e-05
2.73161495e-05
3.6812904e-05
3.633656524e-05
3.729317177e-05
3.777904931e-05
3.31007468e-05
3.265339183e-05
3.356228626e-05
3.401455615e-05
2.951367242e-05
2.910186595e-05
3.001902951e-05
3.043940524e-05
3.129654579e-05
3.08647177e-05
2.828814104e-05
2.869369564e-05
3.177133112e-05
3.221005682e-05
3.493157783e-05
3.447128984e-05
3.53970172e-05
3.586480307e-05
3.876318806e-05
3.826905959e-05
1.698257074e-05
1.516998327e-05
1.731124394e-05
1.484177665e-05
1.798064659e-05
1.764424997e-05
1.451739263e-05
1.419257569e-05
1.937291563e-05
1.902048825e-05
1.832413363e-05
1.86702564e-05
1.213685573e-05
1.181052085e-05
1.290841374e-05
1.322921253e-05
1.387059547e-05
1.354857432e-05
1.117459669e-05
1.150025037e-05
-6.662236046e-06
-6.157177268e-06
-4.92362733e-06
-5.429965768e-06
-1.68307372e-06
-1.664389174e-06
-1.053882102e-06
-1.072628379e-06
1.777980003e-07
1.587877136e-07
-4.633051276e-07
-4.443321586e-07
3.563830887e-06
3.865580311e-06
4.194890607e-06
4.499023817e-06
3.234812539e-06
2.934875056e-06
2.316345217e-06
2.612427579e-06
6.474205293e-06
6.726856554e-06
7.349157386e-06
7.098069091e-06
8.607212294e-06
8.344662092e-06
7.725777323e-06
7.977107089e-06
9.911711459e-06
1.023270397e-05
1.086316843e-05
1.054117456e-05
2.022832996e-05
2.058501923e-05
2.130641406e-05
2.09449463e-05
2.2778524e-05
2.240808681e-05
2.167147613e-05
2.203815893e-05
2.346393376e-05
2.383917672e-05
2.45950614e-05
2.421626232e-05
2.613590004e-05
2.574800237e-05
2.497742753e-05
2.536167449e-05
2.670289359e-05
2.709517685e-05
2.788889833e-05
2.749096711e-05
3.681140515e-05
3.633517917e-05
3.311301043e-05
3.266685962e-05
3.356367233e-05
3.40164006e-05
2.960281381e-05
2.919196231e-05
3.005855251e-05
3.047853534e-05
3.133517748e-05
3.090469545e-05
2.83788504e-05
2.878266787e-05
3.178432235e-05
3.222344822e-05
3.493291297e-05
3.447268682e-05
3.539602767e-05
3.586321327e-05
1.749917647e-05
1.66573227e-05
1.782661639e-05
1.633422471e-05
1.849187902e-05
1.815749602e-05
1.601246549e-05
1.569237065e-05
1.987444375e-05
1.952373896e-05
1.883193545e-05
1.917582813e-05
1.258956581e-05
1.227097528e-05
1.442375105e-05
1.473869088e-05
1.537265962e-05
1.505468663e-05
1.163713387e-05
1.195495315e-05
-4.109386282e-06
-4.090761195e-06
-3.483718046e-06
-3.502012305e-06
-2.270097184e-06
-2.288825272e-06
-2.899889523e-06
-2.88112733e-06
-1.047877163e-07
1.779494028e-07
7.79054858e-07
4.879641438e-07
1.993993465e-06
1.702238364e-06
1.098991902e-06
1.387109251e-06
5.229608632e-06
5.479078936e-06
5.849719855e-06
6.101617146e-06
4.858490229e-06
4.610424185e-06
4.004343737e-06
4.247879588e-06
7.445380106e-06
7.759813343e-06
8.37576772e-06
8.061285371e-06
9.604485058e-06
9.28533882e-06
8.674904166e-06
8.985757631e-06
1.037861239e-05
1.069248719e-05
1.132072794e-05
1.100540612e-05
2.054866491e-05
2.090426278e-05
2.162381134e-05
2.12627765e-05
2.309151751e-05
2.272160964e-05
2.198765105e-05
2.235336615e-05
2.364730972e-05
2.402133941e-05
2.477622911e-05
2.439720811e-05
2.631407187e-05
2.592678902e-05
2.51573656e-05
2.554112507e-05
2.679511272e-05
2.718668111e-05
2.797952038e-05
2.758248411e-05
3.311510591e-05
3.266842759e-05
3.356304296e-05
3.401568392e-05
2.964348823e-05
2.923159991e-05
3.007099986e-05
3.049119914e-05
3.134887811e-05
3.091679537e-05
2.84183152e-05
2.882255285e-05
3.178591214e-05
3.222525629e-05
3.493214899e-05
3.447224299e-05
1.783017797e-05
1.717547457e-05
1.815690666e-05
1.68538736e-05
1.881992648e-05
1.848724423e-05
1.65337915e-05
1.621500815e-05
2.019579551e-05
1.984672235e-05
1.915876965e-05
1.95002558e-05
1.410921868e-05
1.379594505e-05
1.495309516e-05
1.526591041e-05
1.589615567e-05
1.558026634e-05
1.317281294e-05
1.348339356e-05
-2.494087539e-06
-2.210055527e-06
-1.617469252e-06
-1.902623694e-06
-4.190134462e-07
-7.062401437e-07
-1.305935143e-06
-1.018917146e-06
1.6347052e-06
1.871312179e-06
2.459528332e-06
2.215835821e-06
3.643480568e-06
3.40386714e-06
2.811615559e-06
3.050280611e-06
6.217617738e-06
6.530387964e-06
6.830874554e-06
7.144617939e-06
5.917670023e-06
5.607205821e-06
5.009952929e-06
5.313964721e-06
7.914911293e-06
8.221522876e-06
8.834491382e-06
8.527190403e-06
1.006733419e-05
9.755955034e-06
9.142093404e-06
9.447039702e-06
1.193911339e-05
1.224503285e-05
1.286257429e-05
1.255376992e-05
2.073653377e-05
2.109169873e-05
2.18100613e-05
2.144951395e-05
2.327563197e-05
2.290632619e-05
2.217357178e-05
2.253863568e-05
2.37426666e-05
2.411601236e-05
2.48700162e-05
2.449188651e-05
2.640627099e-05
2.60193774e-05
2.525138916e-05
2.563439375e-05
2.683526145e-05
2.722726458e-05
2.801983646e-05
2.762261283e-05
3.311321416e-05
3.266708518e-05
2.965648309e-05
2.924479122e-05
3.007306441e-05
3.049285624e-05
3.134955477e-05
3.091866893e-05
2.843234142e-05
2.883708657e-05
3.178454426e-05
3.222392479e-05
1.802402221e-05
1.750727824e-05
1.835057265e-05
1.718640306e-05
1.901284304e-05
1.867930041e-05
1.686701398e-05
1.654887092e-05
2.038515231e-05
2.003623922e-05
1.934987631e-05
1.969093682e-05
1.464035631e-05
1.432936733e-05
1.529256951e-05
1.560407873e-05
1.623179014e-05
1.591686487e-05
1.371137023e-05
1.40192833e-05
-7.126016044e-07
-4.796281701e-07
1.019420779e-07
-1.321538292e-07
1.27673627e-06
1.038945129e-06
4.531527225e-07
6.905665373e-07
2.673264362e-06
2.974320523e-06
3.553004035e-06
3.256981472e-06
4.720016932e-06
4.420494861e-06
3.837662916e-06
4.135319614e-06
6.695754109e-06
7.000632195e-06
7.305023701e-06
7.610717148e-06
6.392155683e-06
6.090344868e-06
5.497184702e-06
5.7930406e-06
9.52607661e-06
9.824570952e-06
1.042379154e-05
1.01241485e-05
1.163394245e-05
1.133056048e-05
1.072542091e-05
1.10270139e-05
1.248797616e-05
1.279198386e-05
1.340419385e-05
1.309809068e-05
2.083401705e-05
2.118840894e-05
2.190693522e-05
2.1546266e-05
2.337168189e-05
2.300173401e-05
2.226966717e-05
2.26344564e-05
2.378484714e-05
2.415799645e-05
2.491151645e-05
2.453317211e-05
2.64463979e-05
2.605976988e-05
2.529208541e-05
2.567500815e-05
2.684940773e-05
2.724124352e-05
2.803365896e-05
2.7636097e-05
2.96581602e-05
2.924687033e-05
3.007332634e-05
3.049322368e-05
3.134918734e-05
3.09185416e-05
2.843428229e-05
2.883884008e-05
1.812425216e-05
1.770150448e-05
1.844988947e-05
1.738035462e-05
1.91118379e-05
1.877974137e-05
1.706149123e-05
1.674396481e-05
2.048279202e-05
2.013479025e-05
1.944978976e-05
1.978973887e-05
1.498168785e-05
1.467217771e-05
1.549149238e-05
1.580207936e-05
1.642818643e-05
1.611425068e-05
1.405839248e-05
1.436515777e-05
3.511895557e-07
6.456343726e-07
1.220164336e-06
9.266512961e-07
2.38147868e-06
2.079511432e-06
1.502930104e-06
1.797384243e-06
3.184197794e-06
3.471564241e-06
4.0459704e-06
3.757607374e-06
5.204388799e-06
4.912783879e-06
4.33430705e-06
4.623504083e-06
8.335758139e-06
8.632496247e-06
8.930334843e-06
9.228040653e-06
8.039898603e-06
7.747312338e-06
7.169836408e-06
7.45693751e-06
1.009727748e-05
1.039305971e-05
1.098735083e-05
1.068991332e-05
1.218556099e-05
1.188435454e-05
1.12857897e-05
1.158493615e-05
1.284366317e-05
1.314592555e-05
1.375329521e-05
1.344950942e-05
2.087635585e-05
2.123105151e-05
2.194930676e-05
2.158873031e-05
2.341346044e-05
2.304373993e-05
2.231203689e-05
2.26764605e-05
2.379914076e-05
2.417241922e-05
2.492502244e-05
2.454744026e-05
2.646058056e-05
2.60736233e-05
2.530619167e-05
2.568881064e-05
2.685211439e-05
2.724351543e-05
2.803415191e-05
2.76376486e-05
2.965800377e-05
2.924602813e-05
2.843304355e-05
2.883823254e-05
1.816794975e-05
1.780132334e-05
1.849420005e-05
1.748082832e-05
1.915575376e-05
1.882296783e-05
1.716189581e-05
1.684522977e-05
2.052575473e-05
2.017782208e-05
1.949269426e-05
1.983304901e-05
1.518186309e-05
1.487450481e-05
1.559481279e-05
1.590474858e-05
1.652962055e-05
1.621631236e-05
1.426351264e-05
1.456823065e-05
8.90335059e-07
1.17593197e-06
1.745694931e-06
1.460366775e-06
2.89179593e-06
2.603625035e-06
2.032100383e-06
2.317471854e-06
4.921396339e-06
5.198992767e-06
5.757183317e-06
5.478122603e-06
6.884628419e-06
6.601880159e-06
6.038434549e-06
6.319150089e-06
8.917320883e-06
9.211526049e-06
9.506416973e-06
9.80144614e-06
8.624791008e-06
8.335402526e-06
7.764223483e-06
8.048329619e-06
1.04674491e-05
1.07615142e-05
1.135240927e-05
1.105679894e-05
1.254229392e-05
1.224299376e-05
1.164921377e-05
1.194596189e-05
1.305411752e-05
1.33549529e-05
1.395923118e-05
1.365785738e-05
2.089102418e-05
2.124555431e-05
2.196348032e-05
2.160312215e-05
2.342785774e-05
2.305806447e-05
2.232644874e-05
2.269092874e-05
2.38018456e-05
2.41751186e-05
2.492759086e-05
2.454971764e-05
2.646278517e-05
2.607611896e-05
2.530851089e-05
2.569117169e-05
2.68511958e-05
2.72428133e-05
2.803306779e-05
2.763657358e-05
1.818337842e-05
1.784565757e-05
1.850918125e-05
1.752516073e-05
1.917014561e-05
1.883845653e-05
1.720677938e-05
1.688997691e-05
2.054045763e-05
2.019264502e-05
1.950757542e-05
1.984795745e-05
1.528603934e-05
1.497847006e-05
1.564082959e-05
1.595023787e-05
1.657461144e-05
1.626153971e-05
1.436915318e-05
1.467448783e-05
2.700219738e-06
2.976317774e-06
3.529985406e-06
3.253427167e-06
4.642904059e-06
4.365583663e-06
3.808269639e-06
4.087146863e-06
5.537773177e-06
5.812054951e-06
6.364926776e-06
6.088218015e-06
7.481773991e-06
7.2009625e-06
6.643046618e-06
6.921387467e-06
9.296304597e-06
9.587973182e-06
9.880898688e-06
1.017372597e-05
9.006154869e-06
8.718614481e-06
8.151089787e-06
8.433592484e-06
1.068681013e-05
1.098017037e-05
1.156910184e-05
1.127449741e-05
1.275385421e-05
1.245516341e-05
1.186426744e-05
1.215971315e-05
1.316439284e-05
1.346530007e-05
1.406763295e-05
1.376757882e-05
2.08939e-05
2.124833918e-05
2.196613787e-05
2.160564327e-05
2.343055894e-05
2.306066017e-05
2.232870793e-05
2.269385732e-05
2.380141632e-05
2.417428368e-05
2.492680142e-05
2.454909918e-05
2.64621176e-05
2.607505121e-05
2.530764505e-05
2.569056414e-05
1.81870364e-05
1.786074063e-05
1.851257184e-05
1.754046934e-05
1.917370173e-05
1.884132689e-05
1.722185334e-05
1.690538193e-05
2.054333163e-05
2.019564272e-05
1.951063314e-05
1.985054223e-05
1.53324163e-05
1.502617488e-05
1.565673847e-05
1.59665924e-05
1.659027112e-05
1.627733764e-05
1.441694349e-05
1.472132135e-05
3.340466037e-06
3.614490652e-06
4.16257717e-06
3.889351774e-06
5.261346814e-06
4.987325156e-06
4.436663403e-06
4.711347628e-06
5.93786126e-06
6.211686014e-06
6.759517419e-06
6.48455125e-06
7.870256923e-06
7.590926998e-06
7.035914223e-06
7.312406069e-06
9.521590073e-06
9.811624295e-06
1.010262986e-05
1.039438757e-05
9.2332848e-06
8.947330571e-06
8.381271982e-06
8.662914297e-06
1.080157199e-05
1.109453115e-05
1.168251401e-05
1.13886681e-05
1.286476891e-05
1.25669776e-05
1.197680103e-05
1.227134817e-05
1.321350828e-05
1.351361243e-05
1.411513767e-05
1.381544553e-05
2.089357804e-05
2.124777529e-05
2.196528112e-05
2.160495751e-05
2.343002598e-05
2.306086935e-05
2.232845873e-05
2.269325341e-05
1.818652527e-05
1.786404209e-05
1.851186244e-05
1.754327423e-05
1.917347436e-05
1.884115045e-05
1.722470734e-05
1.690773024e-05
2.054290053e-05
2.019459862e-05
1.951018385e-05
1.985002928e-05
1.534870717e-05
1.504183092e-05
1.565987441e-05
1.59694664e-05
1.659258305e-05
1.628067912e-05
1.443309156e-05
1.473834891e-05
3.756437764e-06
4.028337571e-06
4.573059414e-06
4.301329227e-06
5.6646536e-06
5.390620572e-06
4.844722298e-06
5.117777619e-06
6.176339411e-06
6.448325166e-06
6.994110663e-06
6.721141744e-06
8.101632375e-06
7.823287888e-06
7.269400612e-06
7.545476819e-06
9.640449207e-06
9.928851796e-06
1.02190088e-05
1.050972787e-05
9.353657333e-06
9.068476174e-06
8.502944183e-06
8.784808415e-06
1.085301301e-05
1.11454583e-05
1.173293003e-05
1.143925601e-05
1.291459921e-05
1.261669058e-05
1.202659223e-05
1.232108389e-05
1.323102151e-05
1.353010521e-05
1.413113569e-05
1.383135532e-05
1.786334724e-05
1.754243567e-05
1.722364505e-05
1.690648423e-05
1.53518049e-05
1.504566808e-05
1.565924867e-05
1.59691208e-05
1.659189547e-05
1.627967504e-05
1.443717429e-05
1.474204601e-05
4.005748451e-06
4.27513487e-06
4.817136869e-06
4.546910532e-06
5.903505553e-06
5.631681233e-06
5.087521458e-06
5.359028819e-06
6.299137112e-06
6.571109225e-06
7.117624136e-06
6.843918527e-06
8.223449186e-06
7.945905963e-06
7.392927728e-06
7.668611033e-06
9.693916581e-06
9.981628864e-06
1.027113194e-05
1.056150541e-05
9.407870493e-06
9.123356904e-06
8.558088666e-06
8.83978646e-06
1.087099645e-05
1.116334442e-05
1.175040597e-05
1.145650913e-05
1.293290279e-05
1.263457489e-05
1.204434284e-05
1.233872899e-05
1.323480501e-05
1.353335028e-05
1.413601967e-05
1.383515064e-05
1.535140836e-05
1.504572447e-05
1.443785823e-05
1.474165401e-05
4.136650205e-06
4.406042535e-06
4.944099146e-06
4.674783668e-06
6.027275958e-06
5.757045528e-06
5.213491477e-06
5.48445496e-06
6.354362085e-06
6.62694174e-06
7.173256563e-06
6.899121217e-06
8.278531823e-06
8.000931302e-06
7.448680662e-06
7.724424904e-06
9.713459804e-06
1.000046723e-05
1.029005853e-05
1.058016278e-05
9.427435543e-06
9.142942872e-06
8.577907465e-06
8.859847185e-06
1.087454893e-05
1.116616932e-05
1.1754144e-05
1.145929036e-05
1.293606874e-05
1.263877857e-05
1.2048391e-05
1.234257797e-05
1.323313518e-05
1.353351308e-05
1.413650989e-05
1.383560357e-05
4.196630016e-06
4.463655841e-06
5.000311376e-06
4.733127298e-06
6.084084362e-06
5.813495591e-06
5.270487236e-06
5.541923201e-06
6.375855264e-06
6.646855127e-06
7.193205875e-06
6.919534826e-06
8.298325156e-06
8.020742825e-06
7.468494459e-06
7.744466529e-06
9.717052308e-06
1.000489465e-05
1.029417308e-05
1.058426369e-05
9.4313109e-06
9.146759112e-06
8.582312148e-06
8.863643416e-06
1.087336568e-05
1.116472595e-05
1.175322177e-05
1.145822898e-05
1.293558853e-05
1.263761897e-05
1.204824821e-05
1.234230058e-05
4.217022706e-06
4.485114914e-06
5.021995548e-06
4.753052963e-06
6.103798569e-06
5.834270269e-06
5.292685728e-06
5.563095783e-06
6.379576917e-06
6.651893273e-06
7.196475053e-06
6.922973171e-06
8.302272363e-06
8.024886483e-06
7.473095593e-06
7.748678399e-06
9.715905435e-06
1.000368411e-05
1.029378927e-05
1.058342968e-05
9.429254533e-06
9.144816431e-06
8.581392649e-06
8.862658433e-06
4.221579729e-06
4.488118975e-06
5.026289728e-06
4.756835096e-06
6.109093192e-06
5.83785959e-06
5.296367362e-06
5.567790595e-06
6.378883882e-06
6.649703209e-06
7.196244496e-06
6.921841305e-06
8.302143215e-06
8.02469458e-06
7.472097877e-06
7.748945791e-06
4.221177733e-06
4.488070772e-06
5.025523024e-06
4.756946055e-06
6.107420631e-06
5.836902801e-06
5.296481504e-06
5.565815627e-06
-6.531258987e-05
-6.201592623e-05
-6.310878234e-05
-5.985587995e-05
-5.807417983e-05
-5.818175123e-05
-6.651996227e-05
-6.094452692e-05
-5.608795618e-05
-5.771495125e-05
-5.597432755e-05
-5.493187928e-05
-5.575885007e-05
-6.238838978e-05
-5.885144492e-05
-5.371449879e-05
-5.563778905e-05
-5.387108104e-05
-5.39904031e-05
-5.285288717e-05
-5.138257984e-05
-5.139744462e-05
-5.238524318e-05
-5.237180085e-05
-5.684704229e-05
-5.855303971e-05
-5.037975279e-05
-5.036301445e-05
-5.194268306e-05
-5.182103268e-05
-5.365014658e-05
-5.076717571e-05
-5.162783054e-05
-4.933724631e-05
-4.93552543e-05
-4.874631122e-05
-4.92076615e-05
-5.016701471e-05
-4.972059105e-05
-5.494259676e-05
-5.487713133e-05
-5.311339555e-05
-4.820717368e-05
-4.773208275e-05
-4.957460987e-05
-4.874061051e-05
-4.996754433e-05
-4.984536645e-05
-5.175002298e-05
-4.727127089e-05
-4.729131615e-05
-4.831671322e-05
-4.829734098e-05
-4.671893839e-05
-4.720137804e-05
-4.616803926e-05
-4.656190504e-05
-4.751789675e-05
-4.712708687e-05
-5.119212074e-05
-5.382858944e-05
-5.203537512e-05
-4.993193943e-05
-4.558076034e-05
-4.517595517e-05
-4.627538874e-05
-4.625446672e-05
-4.525708937e-05
-4.527846249e-05
-4.759227886e-05
-4.806990546e-05
-4.678562254e-05
-4.794837514e-05
-4.467069812e-05
-4.515262117e-05
-4.616932711e-05
-4.568296572e-05
-4.417749005e-05
-4.458662806e-05
-4.436982999e-05
-4.485086174e-05
-4.580094537e-05
-4.532296225e-05
-4.75604611e-05
-5.021759716e-05
-4.838828681e-05
-4.817764056e-05
-4.643940338e-05
-4.613083001e-05
-4.62506614e-05
-4.38853167e-05
-4.339173029e-05
-4.413419811e-05
-4.365836867e-05
-4.267357144e-05
-4.430071203e-05
-4.31426306e-05
-4.427865497e-05
-4.567692667e-05
-4.330842785e-05
-4.333088873e-05
-4.489959247e-05
-4.217474998e-05
-4.258234185e-05
-4.357110083e-05
-4.31580338e-05
-4.240166163e-05
-4.290206925e-05
-4.209944746e-05
-4.257266846e-05
-4.351503958e-05
-4.304337926e-05
-4.411438567e-05
-4.657324098e-05
-4.479908603e-05
-4.467524559e-05
-4.290822108e-05
-4.450581037e-05
-4.438699398e-05
-4.26706174e-05
-4.279166751e-05
-4.310212535e-05
-4.384090062e-05
-4.162174082e-05
-4.11389301e-05
-4.157877993e-05
-4.117720528e-05
-4.020371853e-05
-4.215709487e-05
-4.060164065e-05
-4.169446765e-05
-4.238147085e-05
-4.235847882e-05
-4.07290172e-05
-4.119030928e-05
-4.142768012e-05
-4.145040657e-05
-4.046382674e-05
-4.094548422e-05
-4.190112668e-05
-4.141378668e-05
-4.016169623e-05
-4.065236135e-05
-4.051988799e-05
-4.098810678e-05
-4.19263597e-05
-4.145726416e-05
-4.082823943e-05
-4.3087417e-05
-4.141869431e-05
-4.115209958e-05
-3.943480624e-05
-4.107015411e-05
-4.094660471e-05
-3.921310054e-05
-3.933797416e-05
-4.208728205e-05
-4.137620999e-05
-3.968627789e-05
-4.038702173e-05
-3.963417112e-05
-3.965698488e-05
-4.054407327e-05
-4.05212013e-05
-4.004593575e-05
-3.956901492e-05
-3.997216845e-05
-3.947974619e-05
-3.851779184e-05
-3.962632763e-05
-3.900237425e-05
-3.922904216e-05
-4.022442226e-05
-3.977598681e-05
-3.825876411e-05
-3.865643157e-05
-3.885622573e-05
-3.929542072e-05
-3.819866106e-05
-3.86866086e-05
-3.966825898e-05
-3.917547656e-05
-3.859978096e-05
-3.908487997e-05
-3.93430455e-05
-3.980963083e-05
-4.074503886e-05
-4.027726027e-05
-3.762403139e-05
-3.979510075e-05
-3.818578261e-05
-3.776705853e-05
-3.613165609e-05
-3.76145872e-05
-3.748965173e-05
-3.579637632e-05
-3.591882341e-05
-3.869028296e-05
-3.798472608e-05
-3.627362094e-05
-3.698423825e-05
-3.878560165e-05
-3.876254777e-05
-3.790855772e-05
-3.793130963e-05
-3.6236288e-05
-3.625943282e-05
-3.709473822e-05
-3.707174619e-05
-3.707092765e-05
-3.749194002e-05
-3.837831537e-05
-3.794880831e-05
-3.887276034e-05
-3.839834972e-05
-3.77147735e-05
-3.723638656e-05
-3.628952254e-05
-3.803748405e-05
-3.676316192e-05
-3.754778663e-05
-3.768888564e-05
-3.730259778e-05
-3.657778871e-05
-3.706774078e-05
-3.638455382e-05
-3.675615881e-05
-3.666200428e-05
-3.714207196e-05
-3.811141869e-05
-3.762637061e-05
-3.743704656e-05
-3.791856579e-05
-3.853630551e-05
-3.900211232e-05
-3.993671999e-05
-3.946900324e-05
-3.454556281e-05
-3.658639616e-05
-3.500652383e-05
-3.453436511e-05
-3.295651186e-05
-3.427125921e-05
-3.415187166e-05
-3.254268449e-05
-3.266065687e-05
-3.526990258e-05
-3.456612467e-05
-3.288692096e-05
-3.357646347e-05
-3.543587809e-05
-3.54119511e-05
-3.457247658e-05
-3.45962726e-05
-3.28844435e-05
-3.290941822e-05
-3.375757296e-05
-3.373304935e-05
-3.660890798e-05
-3.619423296e-05