/*--------------------------------*- C++ -*----------------------------------*\
  =========                 |
  \\      /  F ield         | OpenFOAM: The Open Source CFD Toolbox
   \\    /   O peration     | Website:  https://openfoam.org
    \\  /    A nd           | Version:  8
     \\/     M anipulation  |
\*---------------------------------------------------------------------------*/






FoamFile
{
    version     2.0;
    format      ascii;
    class       volSymmTensorField;
    location    "0";
    object      TauDDES;
}
// * * * * * * * * * * * * * * * * * * * * * * * * * * * * * * * * * * * * * //

dimensions      [0 2 -2 0 0 0 0];


internalField   nonuniform List<symmTensor>
19484
(
( 2.840967863e-05 -5.829238944e-06 4.415967112e-07 1.442986922e-05 -3.846266168e-07 2.789946666e-05 )
( 2.829091136e-05 -4.219110906e-06 1.553561617e-07 1.076827084e-05 -3.689681307e-07 2.840762136e-05 )
( 2.859075721e-05 -5.938061349e-06 3.8879881e-07 1.469767176e-05 -3.611922921e-07 2.788632264e-05 )
( 2.845474046e-05 -3.343822527e-06 1.278278106e-08 8.551509382e-06 -3.160050142e-07 2.840972775e-05 )
( 2.84587677e-05 -4.319319942e-06 7.469454744e-08 1.099073688e-05 -3.375334927e-07 2.838283763e-05 )
( 2.844165647e-05 -3.336534974e-06 1.764592383e-08 8.536075256e-06 -3.176555197e-07 2.840760499e-05 )
( 2.901213338e-05 -7.012579317e-06 4.874830211e-07 1.689643614e-05 -3.244949482e-07 2.752452929e-05 )
( 2.875661448e-05 -6.042262612e-06 3.422812256e-07 1.496310233e-05 -3.427811635e-07 2.790330109e-05 )
( 2.861867324e-05 -3.433386837e-06 -6.028987087e-08 8.722866369e-06 -2.85626129e-07 2.842754111e-05 )
( 2.863656846e-05 -2.795469072e-06 -5.495577682e-08 7.101643405e-06 -2.704586564e-07 2.833491453e-05 )
( 2.861321991e-05 -4.415540388e-06 -5.515140344e-09 1.12181724e-05 -2.985632079e-07 2.836516069e-05 )
( 2.863052941e-05 -3.440360388e-06 -6.63303581e-08 8.737809367e-06 -2.82495165e-07 2.842871072e-05 )
( 2.854341074e-05 -2.760847565e-06 -3.021802542e-08 7.038864624e-06 -2.759592519e-07 2.831942766e-05 )
( 2.938997568e-05 -7.209094747e-06 4.613781357e-07 1.73924509e-05 -3.390411791e-07 2.765770114e-05 )
( 2.891849545e-05 -6.136820048e-06 3.030199878e-07 1.52162047e-05 -3.322284385e-07 2.793738167e-05 )
( 2.874788515e-05 -2.850185638e-06 -1.028720646e-07 7.203066161e-06 -2.54917552e-07 2.835357009e-05 )
( 2.849426164e-05 -2.18815353e-06 -9.50141299e-08 5.371729912e-06 -2.064610243e-07 2.778973067e-05 )
( 2.849019802e-05 -2.186902066e-06 -9.391290945e-08 5.369414794e-06 -2.065485774e-07 2.77890249e-05 )
( 2.878788473e-05 -3.52955044e-06 -1.432228203e-07 8.929609066e-06 -2.400959147e-07 2.845221024e-05 )
( 2.875415521e-05 -4.501798685e-06 -7.528230128e-08 1.145202532e-05 -2.683099751e-07 2.837057218e-05 )
( 2.877733823e-05 -3.523385658e-06 -1.378490992e-07 8.913843885e-06 -2.432024075e-07 2.84509315e-05 )
( 2.882907938e-05 -2.88065803e-06 -1.374000362e-07 7.264156466e-06 -2.415040967e-07 2.837836655e-05 )
( 2.835213309e-05 -2.155051106e-06 -6.815747611e-08 5.28913688e-06 -2.068889273e-07 2.777000554e-05 )
( 2.83564932e-05 -2.156248911e-06 -6.881475656e-08 5.291487014e-06 -2.067396423e-07 2.777066766e-05 )
( 2.909028262e-05 -6.226662208e-06 2.732923292e-07 1.545587293e-05 -3.264482871e-07 2.796929766e-05 )
( 2.980562567e-05 -7.452400496e-06 4.246120398e-07 1.788554255e-05 -3.407442648e-07 2.77055733e-05 )
( 2.862332622e-05 -2.225946218e-06 -1.355559505e-07 5.421798505e-06 -1.985778511e-07 2.781596049e-05 )
( 2.862711699e-05 -2.227009873e-06 -1.368418339e-07 5.423999482e-06 -1.983859761e-07 2.781694639e-05 )
( 2.817427048e-05 -1.835043918e-06 -1.212072362e-07 4.24775908e-06 -1.533747138e-07 2.713796857e-05 )
( 2.811201557e-05 -1.823801313e-06 -1.050989411e-07 4.213968168e-06 -1.521883775e-07 2.712653622e-05 )
( 2.891451732e-05 -3.602545576e-06 -2.044467067e-07 9.111852705e-06 -2.031647597e-07 2.848947224e-05 )
( 2.899709943e-05 -2.957715651e-06 -2.141200071e-07 7.429286143e-06 -1.977096673e-07 2.844306073e-05 )
( 2.888807649e-05 -4.57991473e-06 -1.339641358e-07 1.167729806e-05 -2.449308454e-07 2.840379602e-05 )
( 2.892324483e-05 -3.607665349e-06 -2.092762372e-07 9.128114471e-06 -2.008874276e-07 2.849293014e-05 )
( 2.892846169e-05 -2.931153176e-06 -1.860561838e-07 7.365947567e-06 -2.156387779e-07 2.840801972e-05 )
( 2.87428029e-05 -2.252622835e-06 -1.814779296e-07 5.501127362e-06 -1.917917132e-07 2.784890967e-05 )
( 2.873946687e-05 -2.251651722e-06 -1.800235054e-07 5.498883638e-06 -1.921660555e-07 2.784768003e-05 )
( 2.794309876e-05 -1.800881137e-06 -9.024363123e-08 4.150573659e-06 -1.479546796e-07 2.710268382e-05 )
( 2.801170922e-05 -1.813969334e-06 -9.477426488e-08 4.186741535e-06 -1.506246718e-07 2.710963599e-05 )
( 2.926837442e-05 -6.324675269e-06 2.526543597e-07 1.569143205e-05 -3.176254779e-07 2.798543392e-05 )
( 3.02445369e-05 -7.714993444e-06 3.216986499e-07 1.841574704e-05 -3.114311369e-07 2.778597991e-05 )
( 2.944660991e-05 -6.435504474e-06 2.32406876e-07 1.593344314e-05 -3.023448016e-07 2.799076356e-05 )
( 2.82671117e-05 -1.859021154e-06 -1.449727733e-07 4.260809874e-06 -1.489728731e-07 2.715848677e-05 )
( 2.832364044e-05 -1.870991127e-06 -1.616792247e-07 4.296498446e-06 -1.509937704e-07 2.717398274e-05 )
( 2.752157525e-05 -1.482174184e-06 -1.399832286e-07 3.151344117e-06 -1.034512991e-07 2.620819578e-05 )
( 2.744202175e-05 -1.47641606e-06 -1.29067061e-07 3.138365628e-06 -1.02981744e-07 2.618909275e-05 )
( 2.907634371e-05 -3.00093734e-06 -2.478822694e-07 7.537916645e-06 -1.743775613e-07 2.848041549e-05 )
( 2.894546196e-05 -2.307083832e-06 -2.732911923e-07 5.632001375e-06 -1.601766115e-07 2.794789543e-05 )
( 2.894284262e-05 -2.306195029e-06 -2.721476164e-07 5.629711268e-06 -1.608094351e-07 2.794593456e-05 )
( 2.903866152e-05 -3.673141919e-06 -2.605944474e-07 9.324704479e-06 -1.732068284e-07 2.855943058e-05 )
( 2.903020504e-05 -3.668948693e-06 -2.571331379e-07 9.309113921e-06 -1.749617979e-07 2.855414459e-05 )
( 2.902615415e-05 -4.653890301e-06 -1.630219941e-07 1.189110753e-05 -2.253978693e-07 2.844357186e-05 )
( 2.912418677e-05 -3.024193575e-06 -2.681936735e-07 7.600743174e-06 -1.573050241e-07 2.851956015e-05 )
( 2.8849925e-05 -2.286033578e-06 -2.285829908e-07 5.551904451e-06 -1.764867648e-07 2.789400605e-05 )
( 2.885279173e-05 -2.286918289e-06 -2.30069702e-07 5.554001291e-06 -1.759433133e-07 2.78956777e-05 )
( 2.845919516e-05 -1.883429832e-06 -2.092354094e-07 4.352804353e-06 -1.473276825e-07 2.720906559e-05 )
( 2.84101443e-05 -1.876736292e-06 -1.836494903e-07 4.322133464e-06 -1.492613819e-07 2.719605982e-05 )
( 2.725177364e-05 -1.457947292e-06 -1.147353217e-07 3.094249223e-06 -1.016037174e-07 2.615678022e-05 )
( 2.73389287e-05 -1.465203241e-06 -1.16916155e-07 3.107883458e-06 -1.023436766e-07 2.616918573e-05 )
( 3.06936563e-05 -7.935173926e-06 1.93563011e-07 1.895627793e-05 -2.605876546e-07 2.791281258e-05 )
( 2.979288911e-05 -6.64852405e-06 1.768512021e-07 1.644033182e-05 -2.659562597e-07 2.804058749e-05 )
( 2.96212711e-05 -6.547248631e-06 2.058343114e-07 1.618375245e-05 -2.840071716e-07 2.800551556e-05 )
( 2.915830919e-05 -4.727585292e-06 -1.665811737e-07 1.209896982e-05 -2.080383297e-07 2.849072371e-05 )
( 2.76149749e-05 -1.498961296e-06 -1.599010631e-07 3.177796543e-06 -1.033088921e-07 2.622825923e-05 )
( 2.768850572e-05 -1.505417458e-06 -1.713503366e-07 3.192232271e-06 -1.047237035e-07 2.624814988e-05 )
( 2.679361569e-05 -1.251303843e-06 -1.610662252e-07 2.47931348e-06 -7.784257861e-08 2.53197868e-05 )
( 2.671168113e-05 -1.245876661e-06 -1.523440716e-07 2.452487252e-06 -7.511084732e-08 2.529948506e-05 )
( 2.903218046e-05 -2.33749347e-06 -3.071372987e-07 5.684732969e-06 -1.385183879e-07 2.801014853e-05 )
( 2.903433597e-05 -2.338284958e-06 -3.079691169e-07 5.686863005e-06 -1.378473655e-07 2.801204209e-05 )
( 2.869643686e-05 -1.924517164e-06 -3.104186703e-07 4.459259344e-06 -1.232198485e-07 2.732412031e-05 )
( 2.865482384e-05 -1.918257794e-06 -2.884574428e-07 4.426040505e-06 -1.285679332e-07 2.729686457e-05 )
( 2.914229117e-05 -3.726757541e-06 -2.86556201e-07 9.497667634e-06 -1.578664097e-07 2.864039925e-05 )
( 2.922868589e-05 -3.079213457e-06 -3.002669757e-07 7.771128367e-06 -1.298565167e-07 2.862467591e-05 )
( 2.918604878e-05 -3.061436473e-06 -2.931172958e-07 7.70817951e-06 -1.393258486e-07 2.857451727e-05 )
( 2.914962897e-05 -3.730578555e-06 -2.877411873e-07 9.512769793e-06 -1.573660455e-07 2.864634371e-05 )
( 2.91038923e-05 -2.355702236e-06 -3.322091402e-07 5.765576589e-06 -1.205291937e-07 2.807101009e-05 )
( 2.910200055e-05 -2.354851631e-06 -3.316824291e-07 5.763267836e-06 -1.211111709e-07 2.806898192e-05 )
( 2.853961996e-05 -1.905434146e-06 -2.382338522e-07 4.365709628e-06 -1.38830373e-07 2.723802754e-05 )
( 2.858347398e-05 -1.914353106e-06 -2.620710973e-07 4.400674698e-06 -1.362189295e-07 2.726190178e-05 )
( 2.784534627e-05 -1.515763188e-06 -2.165301822e-07 3.23038671e-06 -1.025823622e-07 2.62859503e-05 )
( 2.777519148e-05 -1.514585165e-06 -1.950683384e-07 3.221734232e-06 -1.051862029e-07 2.627087451e-05 )
( 2.650558235e-05 -1.229615009e-06 -1.392232036e-07 2.415676136e-06 -7.475160402e-08 2.52552054e-05 )
( 2.65982635e-05 -1.238061941e-06 -1.463086363e-07 2.446042345e-06 -7.660824508e-08 2.527585275e-05 )
( 3.117792221e-05 -8.117909601e-06 1.95375236e-08 1.947412602e-05 -1.728488712e-07 2.79954802e-05 )
( 3.01617838e-05 -6.830092843e-06 1.235575269e-07 1.696142135e-05 -2.390430893e-07 2.814359686e-05 )
( 2.996956755e-05 -6.740128811e-06 1.512593855e-07 1.669996709e-05 -2.514300661e-07 2.80897475e-05 )
( 2.944494736e-05 -4.859528417e-06 -1.261734326e-07 1.252169022e-05 -1.79408616e-07 2.864199814e-05 )
( 2.929573748e-05 -4.796036137e-06 -1.504679119e-07 1.230971338e-05 -1.918753583e-07 2.855414641e-05 )
( 2.926138768e-05 -3.783271495e-06 -2.795128466e-07 9.695879271e-06 -1.504339764e-07 2.874185338e-05 )
( 2.925396802e-05 -3.779825192e-06 -2.807190072e-07 9.680757103e-06 -1.503689333e-07 2.873479025e-05 )
( 2.689634493e-05 -1.261793273e-06 -1.733689459e-07 2.485385266e-06 -7.66421806e-08 2.534550731e-05 )
( 2.696798947e-05 -1.267152697e-06 -1.868841082e-07 2.51295387e-06 -7.922039913e-08 2.536487591e-05 )
( 2.609816875e-05 -1.133715159e-06 -1.651849146e-07 2.1198789e-06 -5.710148443e-08 2.46583968e-05 )
( 2.600300286e-05 -1.129041834e-06 -1.591455714e-07 2.103873385e-06 -5.568636396e-08 2.463553938e-05 )
( 2.876622602e-05 -1.94561062e-06 -3.306282679e-07 4.474683465e-06 -1.110929304e-07 2.73670521e-05 )
( 2.880253669e-05 -1.950827937e-06 -3.471887453e-07 4.5082611e-06 -1.049539691e-07 2.739701631e-05 )
( 2.812674938e-05 -1.543992994e-06 -3.157662718e-07 3.308339956e-06 -8.627614534e-08 2.640128696e-05 )
( 2.806822158e-05 -1.542364998e-06 -2.962762551e-07 3.300357776e-06 -9.128100942e-08 2.637517173e-05 )
( 2.929239054e-05 -3.109281124e-06 -3.085074241e-07 7.873148206e-06 -1.205704052e-07 2.869202217e-05 )
( 2.923088505e-05 -2.404810175e-06 -3.508169186e-07 5.899895768e-06 -9.42908116e-08 2.820810005e-05 )
( 2.922915337e-05 -2.404074621e-06 -3.508623649e-07 5.897726169e-06 -9.458959482e-08 2.820571171e-05 )
( 2.916920494e-05 -2.386468623e-06 -3.497104046e-07 5.81853692e-06 -1.029071086e-07 2.813867468e-05 )
( 2.917093843e-05 -2.387250333e-06 -3.498852834e-07 5.820753358e-06 -1.025106897e-07 2.814084473e-05 )
( 2.933157521e-05 -3.123512442e-06 -3.092434895e-07 7.93207164e-06 -1.1804255e-07 2.875473365e-05 )
( 2.889202187e-05 -1.959544306e-06 -3.762356187e-07 4.565135441e-06 -8.87164191e-08 2.746311657e-05 )
( 2.886207221e-05 -1.953623268e-06 -3.616775075e-07 4.533357696e-06 -9.561527037e-08 2.743575533e-05 )
( 2.792806481e-05 -1.531835892e-06 -2.450618126e-07 3.258237484e-06 -9.979245164e-08 2.631641655e-05 )
( 2.799187132e-05 -1.537018989e-06 -2.6583308e-07 3.272179583e-06 -9.716426064e-08 2.634254997e-05 )
( 2.7136879e-05 -1.275669774e-06 -2.277220119e-07 2.544397375e-06 -7.803544122e-08 2.541112917e-05 )
( 2.706748273e-05 -1.273250746e-06 -2.051850743e-07 2.519331019e-06 -7.731677698e-08 2.538964509e-05 )
( 2.579318789e-05 -1.115685336e-06 -1.498025171e-07 2.077105137e-06 -5.444449869e-08 2.459020106e-05 )
( 2.589657379e-05 -1.122105004e-06 -1.535402561e-07 2.092831437e-06 -5.553175342e-08 2.461182521e-05 )
( 3.059817391e-05 -6.995239801e-06 5.037629869e-09 1.746638009e-05 -1.92154431e-07 2.823802606e-05 )
( 3.036711314e-05 -6.916371603e-06 7.65771091e-08 1.721893568e-05 -2.17781718e-07 2.819924521e-05 )
( 3.162234498e-05 -8.260471077e-06 -1.900881585e-07 1.997484105e-05 -6.204678016e-08 2.800285074e-05 )
( 2.9761115e-05 -4.968059784e-06 -6.59916779e-08 1.29412656e-05 -1.729273436e-07 2.888681411e-05 )
( 2.960207712e-05 -4.914752935e-06 -9.620322317e-08 1.273001999e-05 -1.731726371e-07 2.875213613e-05 )
( 2.949865302e-05 -3.880957593e-06 -2.380000126e-07 1.006000184e-05 -1.458043357e-07 2.900467553e-05 )
( 2.948953806e-05 -3.878235475e-06 -2.401307029e-07 1.004554815e-05 -1.456409962e-07 2.899296851e-05 )
( 2.936005149e-05 -3.829171874e-06 -2.638929857e-07 9.863696505e-06 -1.494847481e-07 2.884890091e-05 )
( 2.936907549e-05 -3.832471521e-06 -2.617155985e-07 9.878727724e-06 -1.495983923e-07 2.885808863e-05 )
( 2.943774416e-05 -3.163653673e-06 -2.912840955e-07 8.090006304e-06 -1.207831843e-07 2.889069583e-05 )
( 2.939368278e-05 -3.151377769e-06 -2.995067234e-07 8.032126061e-06 -1.203096076e-07 2.882578156e-05 )
( 2.619421684e-05 -1.142242127e-06 -1.755455656e-07 2.131308747e-06 -5.753868848e-08 2.468316598e-05 )
( 2.628054062e-05 -1.145716169e-06 -1.893996142e-07 2.147450232e-06 -5.789974367e-08 2.47036005e-05 )
( 2.144895006e-05 -7.139954619e-07 -1.871604383e-07 9.711479834e-07 -8.925996831e-09 2.059288818e-05 )
( 2.134354327e-05 -7.11381972e-07 -1.874529403e-07 9.659755733e-07 -8.703243459e-09 2.056382982e-05 )
( 2.819630572e-05 -1.555372819e-06 -3.422725285e-07 3.333355608e-06 -7.776250044e-08 2.644186134e-05 )
( 2.82537294e-05 -1.558043209e-06 -3.579868348e-07 3.34536503e-06 -7.259321677e-08 2.647292968e-05 )
( 2.744475569e-05 -1.291929721e-06 -3.179146688e-07 2.598391802e-06 -6.288723142e-08 2.552642763e-05 )
( 2.738617331e-05 -1.29271541e-06 -2.968014599e-07 2.579103011e-06 -6.652869899e-08 2.549914461e-05 )
( 2.928934191e-05 -2.428058224e-06 -3.551054419e-07 5.948288162e-06 -8.20427104e-08 2.829123696e-05 )
( 2.929073162e-05 -2.428528433e-06 -3.551681687e-07 5.95021811e-06 -8.183825173e-08 2.829394725e-05 )
( 2.90526732e-05 -2.004609996e-06 -3.951515737e-07 4.672653176e-06 -6.60879067e-08 2.761728865e-05 )
( 2.902827691e-05 -1.997428626e-06 -3.942853652e-07 4.640562111e-06 -6.96827982e-08 2.758037044e-05 )
( 2.894823228e-05 -1.983266884e-06 -3.875920811e-07 4.586053819e-06 -7.794903212e-08 2.751007196e-05 )
( 2.897450577e-05 -1.990981218e-06 -3.930593664e-07 4.614759291e-06 -7.425420989e-08 2.753953595e-05 )
( 2.93463745e-05 -2.440267963e-06 -3.494030238e-07 6.022559774e-06 -8.217183023e-08 2.837625107e-05 )
( 2.93445737e-05 -2.439696118e-06 -3.497492571e-07 6.020514775e-06 -8.206854574e-08 2.837371903e-05 )
( 2.837272768e-05 -1.568475e-06 -3.919258518e-07 3.390208349e-06 -6.14922584e-08 2.654648415e-05 )
( 2.831720485e-05 -1.563408432e-06 -3.782495241e-07 3.373502295e-06 -6.642591899e-08 2.651342584e-05 )
( 2.72335983e-05 -1.285498684e-06 -2.500357255e-07 2.550439604e-06 -7.419284032e-08 2.544139716e-05 )
( 2.729872904e-05 -1.288692943e-06 -2.734361715e-07 2.577050282e-06 -7.27918632e-08 2.546797987e-05 )
( 2.645845962e-05 -1.15535579e-06 -2.253322577e-07 2.17623051e-06 -5.779686774e-08 2.475663314e-05 )
( 2.637343641e-05 -1.15272212e-06 -2.052883019e-07 2.16037165e-06 -5.819202187e-08 2.473150926e-05 )
( 2.112182483e-05 -7.031576388e-07 -1.929643645e-07 9.58336841e-07 -6.903596805e-09 2.05054057e-05 )
( 2.12330815e-05 -7.065027035e-07 -1.904479348e-07 9.622401649e-07 -8.159950049e-09 2.053453682e-05 )
( 3.008144995e-05 -5.057696399e-06 -3.992549225e-08 1.336468176e-05 -1.796330338e-07 2.916022822e-05 )
( 3.081797695e-05 -7.05923776e-06 -8.260042961e-08 1.770910967e-05 -1.550231872e-07 2.828154902e-05 )
( 2.991825204e-05 -5.014116596e-06 -4.46880577e-08 1.315357986e-05 -1.780679213e-07 2.902474807e-05 )
( 3.101074253e-05 -7.11444045e-06 -1.778712573e-07 1.794931268e-05 -1.147864666e-07 2.83322297e-05 )
( 3.197720434e-05 -8.410418559e-06 -3.911917759e-07 2.047904309e-05 4.564016365e-08 2.801160372e-05 )
( 2.974797098e-05 -3.955340162e-06 -1.603621058e-07 1.03999937e-05 -1.436722101e-07 2.940995728e-05 )
( 2.97387196e-05 -3.953799933e-06 -1.644997951e-07 1.038697701e-05 -1.432304657e-07 2.939346996e-05 )
( 2.961335485e-05 -3.919110441e-06 -2.104297749e-07 1.02202448e-05 -1.438043e-07 2.917429083e-05 )
( 2.962196595e-05 -3.921140433e-06 -2.073289522e-07 1.023388722e-05 -1.434320609e-07 2.918951031e-05 )
( 2.966096326e-05 -3.244675099e-06 -2.687398535e-07 8.399393664e-06 -1.230967257e-07 2.92419445e-05 )
( 2.961004429e-05 -3.228722562e-06 -2.71086634e-07 8.340649401e-06 -1.227898281e-07 2.915286677e-05 )
( 2.950075032e-05 -3.187478796e-06 -2.790893916e-07 8.187536878e-06 -1.225685082e-07 2.897319428e-05 )
( 2.954233241e-05 -3.200626907e-06 -2.770308924e-07 8.243308002e-06 -1.219250549e-07 2.904902794e-05 )
( 2.948021211e-05 -2.468834509e-06 -3.224184013e-07 6.138026492e-06 -8.574614441e-08 2.855547609e-05 )
( 2.947848043e-05 -2.468412049e-06 -3.227443699e-07 6.136093361e-06 -8.568466114e-08 2.855236016e-05 )
( 2.940938793e-05 -2.461353461e-06 -3.366593546e-07 6.068253697e-06 -8.163375753e-08 2.846549614e-05 )
( 2.941127968e-05 -2.461854365e-06 -3.361208201e-07 6.070100426e-06 -8.172303012e-08 2.846826283e-05 )
( 2.155392212e-05 -7.190439533e-07 -1.880833196e-07 9.764106608e-07 -8.554559727e-09 2.062315434e-05 )
( 2.165647675e-05 -7.202582424e-07 -1.939845617e-07 9.824781273e-07 -7.511872013e-09 2.065105764e-05 )
( 1.790450551e-05 -5.17442345e-07 -1.884155836e-07 5.644910743e-07 1.297634222e-11 1.773377517e-05 )
( 1.779883132e-05 -5.144663646e-07 -1.926651549e-07 5.619692161e-07 -4.908082829e-10 1.770508788e-05 )
( 2.752556793e-05 -1.298180678e-06 -3.396824013e-07 2.597983894e-06 -5.513614454e-08 2.556145409e-05 )
( 2.758147275e-05 -1.298785037e-06 -3.589847779e-07 2.621963404e-06 -5.200341135e-08 2.559361383e-05 )
( 2.678799137e-05 -1.170566293e-06 -3.088079552e-07 2.225264097e-06 -4.496214956e-08 2.487851452e-05 )
( 2.671436596e-05 -1.1714327e-06 -2.874439247e-07 2.21539608e-06 -4.950923227e-08 2.484965808e-05 )
( 2.910524563e-05 -2.024591595e-06 -3.976746541e-07 4.684572559e-06 -5.706634454e-08 2.766912803e-05 )
( 2.91235956e-05 -2.027941036e-06 -4.004441507e-07 4.715784598e-06 -5.267941461e-08 2.771291111e-05 )
( 2.858596781e-05 -1.608491175e-06 -4.256789623e-07 3.463261919e-06 -4.211482718e-08 2.670514004e-05 )
( 2.853591104e-05 -1.601170425e-06 -4.226383226e-07 3.452405736e-06 -4.514581775e-08 2.666431101e-05 )
( 2.84291873e-05 -1.585437417e-06 -4.085549961e-07 3.417390644e-06 -5.416913496e-08 2.659051643e-05 )
( 2.848039185e-05 -1.591711111e-06 -4.146781691e-07 3.428860055e-06 -5.118578628e-08 2.662439147e-05 )
( 2.919427607e-05 -2.03434297e-06 -3.968317799e-07 4.766464826e-06 -5.200496744e-08 2.781058538e-05 )
( 2.91697761e-05 -2.029770712e-06 -4.011008627e-07 4.736452411e-06 -5.093924216e-08 2.77686031e-05 )
( 2.772284461e-05 -1.308917831e-06 -3.90651536e-07 2.65136191e-06 -4.502525286e-08 2.566590229e-05 )
( 2.766541729e-05 -1.305497449e-06 -3.749689768e-07 2.627222329e-06 -4.71496584e-08 2.563357339e-05 )
( 2.654686614e-05 -1.162929721e-06 -2.465956754e-07 2.187787459e-06 -5.575756745e-08 2.478607712e-05 )
( 2.662681072e-05 -1.165984372e-06 -2.679785496e-07 2.203934628e-06 -5.332208275e-08 2.481532647e-05 )
( 2.186274469e-05 -7.235707358e-07 -2.112766992e-07 9.957504972e-07 -5.676754622e-09 2.071393465e-05 )
( 2.176201815e-05 -7.234276609e-07 -2.01592556e-07 9.889806734e-07 -6.59489352e-09 2.068195136e-05 )
( 1.758350663e-05 -5.081832342e-07 -2.027179136e-07 5.593525998e-07 6.348137571e-10 1.764875014e-05 )
( 1.769189839e-05 -5.111024279e-07 -1.972644554e-07 5.604703688e-07 -4.70978645e-10 1.767676986e-05 )
( 2.999338176e-05 -3.994562121e-06 -6.200023961e-08 1.073259409e-05 -1.566593824e-07 2.986087384e-05 )
( 2.998438504e-05 -3.993938662e-06 -6.504721739e-08 1.07185806e-05 -1.563319358e-07 2.984427556e-05 )
( 3.025032674e-05 -5.100415365e-06 -5.341833997e-08 1.357137899e-05 -1.745791138e-07 2.930443588e-05 )
( 2.985729952e-05 -3.975887012e-06 -1.1421983e-07 1.055160374e-05 -1.492053769e-07 2.961818427e-05 )
( 2.986509935e-05 -3.976191692e-06 -1.103862672e-07 1.056503243e-05 -1.498022755e-07 2.963410043e-05 )
( 3.039294461e-05 -5.136372693e-06 -8.50005506e-08 1.377302397e-05 -1.534652796e-07 2.944719017e-05 )
( 3.117399319e-05 -7.170857771e-06 -2.787727453e-07 1.819038152e-05 -7.275050962e-08 2.839143963e-05 )
( 3.233404277e-05 -8.589587196e-06 -5.11210601e-07 2.098626283e-05 1.481864302e-07 2.807377496e-05 )
( 3.131620906e-05 -7.236449619e-06 -3.717995583e-07 1.843588325e-05 -2.701248292e-08 2.845740892e-05 )
( 2.986465188e-05 -3.303724043e-06 -1.911509173e-07 8.687738955e-06 -1.264264569e-07 2.975537973e-05 )
( 2.982002479e-05 -3.294564976e-06 -2.178454253e-07 8.636370694e-06 -1.239076113e-07 2.963031147e-05 )
( 2.971926187e-05 -3.265284249e-06 -2.57948642e-07 8.492677807e-06 -1.250867143e-07 2.936477176e-05 )
( 2.976269025e-05 -3.276551752e-06 -2.457157393e-07 8.548507139e-06 -1.248407244e-07 2.947351823e-05 )
( 2.971710637e-05 -2.521463784e-06 -3.108575015e-07 6.368415598e-06 -8.635085891e-08 2.90045682e-05 )
( 2.971563299e-05 -2.52094469e-06 -3.108394253e-07 6.366525668e-06 -8.6277538e-08 2.900084655e-05 )
( 2.966234024e-05 -2.513460913e-06 -3.123464012e-07 6.297359505e-06 -8.288292008e-08 2.888327253e-05 )
( 2.966426655e-05 -2.513968411e-06 -3.123817862e-07 6.299153938e-06 -8.287556597e-08 2.888685049e-05 )
( 2.954038791e-05 -2.485534878e-06 -3.183018862e-07 6.182649486e-06 -8.59189484e-08 2.865629722e-05 )
( 2.954240335e-05 -2.485877758e-06 -3.180679755e-07 6.184443009e-06 -8.593586642e-08 2.865944407e-05 )
( 2.959841549e-05 -2.49105392e-06 -3.134068152e-07 6.253401807e-06 -8.671331386e-08 2.876668805e-05 )
( 2.95966147e-05 -2.490573024e-06 -3.134225324e-07 6.251493232e-06 -8.676274632e-08 2.876322651e-05 )
( 2.935279554e-05 -2.05498668e-06 -3.704626295e-07 4.852214261e-06 -5.470489128e-08 2.801555638e-05 )
( 2.932869393e-05 -2.054825927e-06 -3.735551672e-07 4.823926247e-06 -5.219992261e-08 2.796746776e-05 )
( 2.925356239e-05 -2.053864364e-06 -3.86961176e-07 4.777079084e-06 -5.112177348e-08 2.78639036e-05 )
( 2.927811693e-05 -2.055509867e-06 -3.803143613e-07 4.805646313e-06 -5.185901841e-08 2.790855069e-05 )
( 1.800650534e-05 -5.204667559e-07 -1.866320076e-07 5.670198675e-07 1.410160544e-09 1.776260433e-05 )
( 1.811009679e-05 -5.220070989e-07 -1.882789036e-07 5.703918191e-07 2.958606915e-09 1.779202285e-05 )
( 1.395850359e-05 -3.455876652e-07 -1.711107416e-07 3.002595577e-07 3.033629348e-09 1.45261547e-05 )
( 1.386511394e-05 -3.43636259e-07 -1.750973837e-07 2.992615862e-07 1.756690793e-09 1.44998603e-05 )
( 2.686966764e-05 -1.176270871e-06 -3.274895448e-07 2.23416464e-06 -3.990130537e-08 2.491493797e-05 )
( 2.694190698e-05 -1.177705826e-06 -3.452565807e-07 2.247753173e-06 -3.596415254e-08 2.494826549e-05 )
( 2.225628668e-05 -7.308410659e-07 -2.515395749e-07 1.017887257e-06 -2.229808782e-09 2.08742149e-05 )
( 2.215750101e-05 -7.297165894e-07 -2.440598905e-07 1.01320768e-06 -3.777794966e-09 2.083025356e-05 )
( 2.863765621e-05 -1.622906893e-06 -4.280317398e-07 3.487124786e-06 -3.560572637e-08 2.675705218e-05 )
( 2.867887815e-05 -1.627319079e-06 -4.33923617e-07 3.496001455e-06 -3.064770127e-08 2.680510988e-05 )
( 2.797688103e-05 -1.342925202e-06 -4.336675943e-07 2.711668913e-06 -2.708306823e-08 2.583141395e-05 )
( 2.792727537e-05 -1.338071797e-06 -4.245023604e-07 2.687248525e-06 -3.0675956e-08 2.578848944e-05 )
( 2.780130671e-05 -1.322818889e-06 -4.045753883e-07 2.660986183e-06 -3.932204606e-08 2.571019286e-05 )
( 2.785117067e-05 -1.327591463e-06 -4.166007272e-07 2.68100257e-06 -3.622728073e-08 2.57435222e-05 )
( 2.877637962e-05 -1.634685304e-06 -4.343458215e-07 3.531812808e-06 -2.75868608e-08 2.691848567e-05 )
( 2.872392542e-05 -1.63017171e-06 -4.343717706e-07 3.520095333e-06 -2.873076532e-08 2.686809057e-05 )
( 2.709444379e-05 -1.188151259e-06 -3.734993754e-07 2.272261327e-06 -2.993281356e-08 2.502109783e-05 )
( 2.702099664e-05 -1.183334462e-06 -3.597457408e-07 2.258105951e-06 -3.291200557e-08 2.498589129e-05 )
( 2.196063906e-05 -7.259052381e-07 -2.227186542e-07 1.00164084e-06 -4.762345629e-09 2.074925396e-05 )
( 2.205834244e-05 -7.264833926e-07 -2.346765626e-07 1.00797854e-06 -4.557842548e-09 2.078745092e-05 )
( 1.831357076e-05 -5.229145472e-07 -1.987295235e-07 5.77654987e-07 5.66746694e-09 1.78551818e-05 )
( 1.82123149e-05 -5.22417281e-07 -1.945427783e-07 5.734643764e-07 4.822524158e-09 1.782087929e-05 )
( 1.367434197e-05 -3.391608345e-07 -1.848271296e-07 2.987952712e-07 1.554996243e-09 1.444874397e-05 )
( 1.376836099e-05 -3.407279507e-07 -1.804999386e-07 2.98798625e-07 1.375728975e-09 1.447422164e-05 )
( 3.008217027e-05 -3.323122428e-06 -5.326531038e-08 8.954270925e-06 -1.429837795e-07 3.03339948e-05 )
( 3.011927402e-05 -4.012310001e-06 -3.468888465e-08 1.088509089e-05 -1.537746073e-07 3.007196028e-05 )
( 3.003311758e-05 -3.324051477e-06 -8.267524265e-08 8.904431525e-06 -1.426183474e-07 3.020284203e-05 )
( 3.012959314e-05 -4.013349553e-06 -3.336076304e-08 1.089831949e-05 -1.53461599e-07 3.008730891e-05 )
( 2.992895497e-05 -3.315269169e-06 -1.529186733e-07 8.769668057e-06 -1.361812849e-07 2.991177826e-05 )
( 2.997184856e-05 -3.318278004e-06 -1.224398858e-07 8.817610251e-06 -1.39288673e-07 3.004003338e-05 )
( 3.027402454e-05 -4.036077371e-06 -2.156501822e-08 1.105945285e-05 -1.350815069e-07 3.028346691e-05 )
( 3.026320701e-05 -4.03491822e-06 -2.205703709e-08 1.104638523e-05 -1.372529823e-07 3.027136881e-05 )
( 3.052084139e-05 -5.175878869e-06 -1.200508564e-07 1.397642154e-05 -1.216107961e-07 2.958765072e-05 )
( 3.254668991e-05 -8.701835213e-06 -5.276580737e-07 2.126922845e-05 1.985561653e-07 2.816898814e-05 )
( 3.161534914e-05 -7.402144547e-06 -4.584861131e-07 1.892739601e-05 7.820532488e-08 2.860051427e-05 )
( 3.145663504e-05 -7.312253274e-06 -4.361467631e-07 1.868170148e-05 2.322665082e-08 2.852546277e-05 )
( 3.06088732e-05 -5.229634098e-06 -1.594614361e-07 1.418617194e-05 -8.785931982e-08 2.97484803e-05 )
( 2.991851397e-05 -2.575833605e-06 -2.339481e-07 6.590600151e-06 -1.047014422e-07 2.958009281e-05 )
( 2.991688234e-05 -2.575330427e-06 -2.351628723e-07 6.588848464e-06 -1.044298941e-07 2.957491961e-05 )
( 2.987664993e-05 -2.573172196e-06 -2.681197486e-07 6.525914614e-06 -9.600788786e-08 2.941967068e-05 )
( 2.987785047e-05 -2.573545999e-06 -2.67234725e-07 6.527560345e-06 -9.608127982e-08 2.942456194e-05 )
( 2.977546319e-05 -2.544819154e-06 -3.054555009e-07 6.412548828e-06 -8.767785431e-08 2.913121352e-05 )
( 2.97768911e-05 -2.545264806e-06 -3.052452939e-07 6.414358722e-06 -8.781589855e-08 2.913521166e-05 )
( 2.982580372e-05 -2.550624231e-06 -2.912858577e-07 6.484391179e-06 -9.467117223e-08 2.92685927e-05 )
( 2.982434489e-05 -2.550200179e-06 -2.917836923e-07 6.482485787e-06 -9.456209682e-08 2.926419256e-05 )
( 2.962596591e-05 -2.09079667e-06 -3.529709431e-07 5.032895842e-06 -5.493226141e-08 2.851814133e-05 )
( 2.960815618e-05 -2.089314876e-06 -3.560850246e-07 5.003634669e-06 -5.265357927e-08 2.845847484e-05 )
( 2.954224328e-05 -2.087707344e-06 -3.605816232e-07 4.953615644e-06 -5.114625523e-08 2.832717109e-05 )
( 2.956078242e-05 -2.089055442e-06 -3.581932049e-07 4.983442068e-06 -5.205635745e-08 2.838703404e-05 )
( 2.940570812e-05 -2.068905815e-06 -3.686279229e-07 4.862946298e-06 -5.49802408e-08 2.807767851e-05 )
( 2.942480387e-05 -2.068812137e-06 -3.669634054e-07 4.89359536e-06 -5.598584352e-08 2.812962339e-05 )
( 2.949287227e-05 -2.068772119e-06 -3.619676079e-07 4.944603916e-06 -5.435746786e-08 2.825535739e-05 )
( 2.947331814e-05 -2.067687092e-06 -3.639200372e-07 4.914460533e-06 -5.456558227e-08 2.819723522e-05 )
( 2.896310798e-05 -1.648135935e-06 -4.121857273e-07 3.592852181e-06 -2.956696221e-08 2.713684626e-05 )
( 2.892178236e-05 -1.648292596e-06 -4.168492183e-07 3.584386604e-06 -2.873058769e-08 2.70835626e-05 )
( 2.882792978e-05 -1.643964424e-06 -4.301129479e-07 3.553039733e-06 -2.741115424e-08 2.697606396e-05 )
( 2.886979564e-05 -1.64549806e-06 -4.245837602e-07 3.5623857e-06 -2.690812551e-08 2.702406891e-05 )
( 1.405106286e-05 -3.47813625e-07 -1.682493576e-07 3.015903189e-07 4.906762108e-09 1.455356414e-05 )
( 1.414210419e-05 -3.485959326e-07 -1.693662597e-07 3.030019116e-07 7.144692393e-09 1.458163752e-05 )
( 1.000531574e-05 -2.044553611e-07 -1.392392619e-07 1.42784387e-07 3.503355606e-09 1.110546327e-05 )
( 9.931317436e-06 -2.032218873e-07 -1.417366775e-07 1.424118636e-07 2.152891199e-09 1.108267406e-05 )
( 2.235585998e-05 -7.353219189e-07 -2.565044213e-07 1.022313313e-06 -3.991709185e-10 2.092043724e-05 )
( 2.245206269e-05 -7.368700494e-07 -2.608849172e-07 1.027450594e-06 8.997123047e-10 2.096580101e-05 )
( 1.871496534e-05 -5.287471367e-07 -2.161761472e-07 5.909754464e-07 6.862992841e-09 1.802164115e-05 )
( 1.861425335e-05 -5.270874794e-07 -2.142711679e-07 5.883295557e-07 6.207560688e-09 1.797523146e-05 )
( 2.804776341e-05 -1.356418579e-06 -4.371310069e-07 2.713620006e-06 -2.201758953e-08 2.588191273e-05 )
( 2.80854747e-05 -1.358767918e-06 -4.424073836e-07 2.736190254e-06 -1.951714701e-08 2.593338104e-05 )
( 2.736970782e-05 -1.217885824e-06 -4.150381301e-07 2.321592092e-06 -1.428067797e-08 2.519247209e-05 )
( 2.73078258e-05 -1.21240771e-06 -4.070552393e-07 2.308304147e-06 -1.78611721e-08 2.514450352e-05 )
( 2.717007374e-05 -1.197868414e-06 -3.859905178e-07 2.282137302e-06 -2.609307614e-08 2.505963857e-05 )
( 2.723683792e-05 -1.203582428e-06 -3.946523179e-07 2.297525043e-06 -2.330546423e-08 2.510122249e-05 )
( 2.819792644e-05 -1.366147444e-06 -4.488174454e-07 2.767808382e-06 -1.652617598e-08 2.605831833e-05 )
( 2.815428525e-05 -1.364795253e-06 -4.463928747e-07 2.741479875e-06 -1.631027935e-08 2.599747495e-05 )