/*--------------------------------*- C++ -*----------------------------------*\
  =========                 |
  \\      /  F ield         | OpenFOAM: The Open Source CFD Toolbox
   \\    /   O peration     | Website:  https://openfoam.org
    \\  /    A nd           | Version:  8
     \\/     M anipulation  |
\*---------------------------------------------------------------------------*/






FoamFile
{
    version     2.0;
    format      ascii;
    class       volScalarField;
    location    "0";
    object      V;
}
// * * * * * * * * * * * * * * * * * * * * * * * * * * * * * * * * * * * * * //

dimensions      [0 3 0 0 0 0 0];


internalField   nonuniform List<scalar> 
19484
(
0.0003430859523
0.0003208917993
0.0003437871485
0.00011243137
0.0003213794106
0.0001122747904
0.0009411357624
0.000344179978
0.0001124423834
0.000101569517
0.0003217510724
0.0001125665655
0.0001015072588
0.0009433066567
0.0003445553971
0.0001016324397
3.350901703e-05
3.347164374e-05
0.0001126615703
0.0003220200542
0.0001125619965
0.0001016743152
3.345014586e-05
3.349245586e-05
0.0003448130404
0.0009446948091
3.348905585e-05
3.352212249e-05
2.882612882e-05
2.882255465e-05
0.0001126501336
0.0001017481349
0.0003222258784
0.0001127302185
0.000101719466
3.353327244e-05
3.350400669e-05
2.880831569e-05
2.881297188e-05
0.0003450175232
0.0009455912459
0.000345191165
2.883415333e-05
2.883688691e-05
2.471423677e-05
2.47095052e-05
0.0001017813692
3.354978598e-05
3.352676776e-05
0.0001127802297
0.0001127155175
0.0003223825352
0.0001018014114
3.351614064e-05
3.354208919e-05
2.884582884e-05
2.884374501e-05
2.469902444e-05
2.470477596e-05
0.0009461768127
0.0003454248096
0.0003453053024
0.0003225021792
2.471809341e-05
2.472199019e-05
2.188565342e-05
2.188225783e-05
3.353545359e-05
3.355589342e-05
2.885944191e-05
2.885819711e-05
0.0001127650409
0.0001018403734
0.0001018261777
0.0001128173586
3.356131209e-05
3.354318808e-05
2.885159715e-05
2.885318957e-05
2.472832798e-05
2.472513055e-05
2.187436301e-05
2.187847129e-05
0.0009465606915
0.000345574502
0.0003454909164
0.0003226716469
0.0003225982042
0.0001128454006
0.0001128030166
2.188878496e-05
2.189157739e-05
2.125066906e-05
2.124784005e-05
2.886370867e-05
2.886466828e-05
2.473793718e-05
2.47356733e-05
0.0001018591596
3.356944861e-05
3.355516182e-05
3.354948123e-05
3.356557113e-05
0.000101869453
2.886910934e-05
2.886838872e-05
2.473087781e-05
2.473353691e-05
2.189632464e-05
2.18941118e-05
2.124119669e-05
2.124476825e-05
0.0003456724172
0.0003456142447
0.0009468068786
0.0003227817918
0.0003227338964
0.0001128839051
0.0001128559928
0.0001128325153
0.0001128668739
0.0001018914802
0.0001018838866
2.125341194e-05
2.125580775e-05
1.717493756e-05
1.717306258e-05
2.473973848e-05
2.474165672e-05
2.190352009e-05
2.190192214e-05
3.355981608e-05
3.357251889e-05
2.887600294e-05
2.887558004e-05
2.887226455e-05
2.887279884e-05
3.357537078e-05
3.356410512e-05
2.47447406e-05
2.474315445e-05
2.189835503e-05
2.19001875e-05
2.125977356e-05
2.125787439e-05
1.716837903e-05
1.717106565e-05
0.0003228562624
0.000345695832
0.0003228240651
0.0003457336581
0.0009469539316
0.0001129088389
0.0001128903967
0.0001128748336
0.0001128975186
0.0001019221392
0.0001019175237
0.0001019027312
0.0001019085452
3.357971284e-05
3.357083329e-05
3.356759558e-05
3.357759941e-05
1.717703537e-05
1.717871769e-05
1.38805699e-05
1.387934364e-05
2.190502425e-05
2.190639885e-05
2.126559162e-05
2.126431086e-05
2.887839855e-05
2.887873789e-05
2.474947805e-05
2.474832064e-05
2.474595616e-05
2.474728502e-05
2.888113278e-05
2.888087544e-05
2.190872132e-05
2.190764708e-05
2.126121816e-05
2.126276693e-05
1.718144004e-05
1.718006549e-05
1.387605288e-05
1.38780705e-05
0.0001129261235
0.0001129139881
0.0003228843779
0.0001129031907
0.0001129181919
0.0003229039272
0.0003457454487
0.0009470258104
0.0003457664037
0.0001019422933
0.0001019391355
0.0001019294078
0.0001019331807
3.358566553e-05
3.358015511e-05
3.35781435e-05
3.358436212e-05
3.357350403e-05
3.358140405e-05
3.358304829e-05
3.357604417e-05
2.888489497e-05
2.888474153e-05
2.88829515e-05
2.888312842e-05
1.388216979e-05
1.388334647e-05
1.121788645e-05
1.121709934e-05
2.126699464e-05
2.126826866e-05
1.718501014e-05
1.718431251e-05
2.475037844e-05
2.475139534e-05
2.191223661e-05
2.191142993e-05
2.190969426e-05
2.191057246e-05
2.475306631e-05
2.475218989e-05
2.12702961e-05
2.126941197e-05
1.7182047e-05
1.718310643e-05
1.388520214e-05
1.388420912e-05
1.121480159e-05
1.121631162e-05
0.000101956379
0.0001129227829
0.0001019540634
0.0001129324423
0.0001019472227
0.0001019499384
0.0001129370533
0.0001129297356
0.0003229191538
0.0009470351824
0.0003457786697
0.0003457708029
0.0003229277524
3.358934664e-05
3.358603827e-05
3.358477083e-05
3.358854087e-05
3.358183828e-05
3.358671549e-05
3.358773908e-05
3.358344712e-05
2.88901352e-05
2.889004356e-05
2.888894992e-05
2.888904623e-05
2.888631043e-05
2.888645337e-05
2.888785008e-05
2.888773324e-05
2.475557331e-05
2.47549373e-05
2.475370788e-05
2.475440789e-05
1.121910138e-05
1.121991891e-05
9.065838144e-06
9.065349032e-06
1.718616076e-05
1.7187126e-05
1.388730008e-05
1.388696725e-05
2.191301024e-05
2.191371012e-05
2.127329733e-05
2.127250218e-05
2.127101869e-05
2.127178436e-05
2.191510724e-05
2.191444232e-05
1.718853021e-05
1.718801894e-05
1.388531145e-05
1.388603122e-05
1.122116992e-05
1.122045634e-05
9.063759298e-06
9.064883736e-06
3.359164242e-05
3.358979337e-05
0.0001019597643
3.358899027e-05
3.359114302e-05
0.0001019616373
3.358711054e-05
3.359000391e-05
3.359064816e-05
3.358814755e-05
0.000112934418
0.0001019654343
0.0001019642252
0.0001129395817
0.0009469825557
0.0003457789007
0.0003457743891
0.0003229372226
0.0003229339809
0.0001129406777
0.0001129370941
2.88931163e-05
2.889309003e-05
2.889251301e-05
2.889253284e-05
2.889100057e-05
2.889107329e-05
2.889188054e-05
2.889183336e-05
2.475914391e-05
2.475875693e-05
2.475799731e-05
2.475842481e-05
2.475608589e-05
2.475668225e-05
2.475763458e-05
2.475713499e-05
2.191689272e-05
2.191643501e-05
2.191565434e-05
2.191606141e-05
9.06675731e-06
9.067319998e-06
7.326547488e-06
7.326259237e-06
1.388823074e-05
1.388896043e-05
1.12223128e-05
1.122220349e-05
2.127407137e-05
2.127469141e-05
1.719039167e-05
1.718976789e-05
1.71888431e-05
1.718934935e-05
2.127639727e-05
2.127520845e-05
1.388992488e-05
1.388965256e-05
1.122099826e-05
1.122148141e-05
9.068148939e-06
9.06763976e-06
7.325173708e-06
7.326006975e-06
2.889455378e-05
3.359046902e-05
2.889457858e-05
3.359205379e-05
2.889434863e-05
2.889431305e-05
3.359110934e-05
3.359243644e-05
2.889360032e-05
2.889362396e-05
2.889403471e-05
2.889404141e-05
0.0001019670037
3.359295981e-05
3.359204565e-05
3.359160337e-05
3.359271146e-05
0.0001019673373
0.0009468529474
0.0003457519709
0.000345770568
0.0003229385511
0.0003229368337
0.0001129423895
0.0001129403345
0.0001129386628
0.0001129414151
0.0001019678282
0.0001019679466
2.476075375e-05
2.476060786e-05
2.476034573e-05
2.47605089e-05
2.475942845e-05
2.475974235e-05
2.476020129e-05
2.475995928e-05
2.19197101e-05
2.191942502e-05
2.191887428e-05
2.191912648e-05
2.191738042e-05
2.191784458e-05
2.191858554e-05
2.191826428e-05
2.127759796e-05
2.127723868e-05
2.127692286e-05
2.127675476e-05
7.327239967e-06
7.327622243e-06
5.920881356e-06
5.920726616e-06
1.122305744e-05
1.122360692e-05
9.068680524e-06
9.068703426e-06
1.719103276e-05
1.719138605e-05
1.389103133e-05
1.389054689e-05
1.388999261e-05
1.389032138e-05
1.719312648e-05
1.719142439e-05
1.122426172e-05
1.12241402e-05
9.067832077e-06
9.068149822e-06
7.328157094e-06
7.327796896e-06
5.919999645e-06
5.920613275e-06
2.476089211e-05
2.889478111e-05
2.476092144e-05
2.889476413e-05
2.47610292e-05
2.476099223e-05
2.889494615e-05
2.889490295e-05
2.476085251e-05
2.476097749e-05
2.476106934e-05
2.476102986e-05
3.359235949e-05
3.35930884e-05
2.889509998e-05
2.889511039e-05
2.889502969e-05
2.889498908e-05
3.359311135e-05
3.359256444e-05
0.000345706705
0.0003457426746
0.0003229225703
0.0003229309799
0.0001129428662
0.0001129420206
0.000112942759
0.000112942026
0.0001019700587
0.000101969307
0.0001019682685
0.0001019684856
3.359300733e-05
3.359262971e-05
3.359259926e-05
3.359303061e-05
2.192051126e-05
2.1920482e-05
2.192048364e-05
2.19204813e-05
2.191994734e-05
2.19201187e-05
2.192040865e-05
2.192027543e-05
2.128066699e-05
2.128019012e-05
2.127968901e-05
2.127995277e-05
2.127825274e-05
2.127884614e-05
2.127959986e-05
2.127921952e-05
1.719310863e-05
1.719304064e-05
1.719349781e-05
1.719245662e-05
5.921400059e-06
5.92165426e-06
4.784865853e-06
4.784798821e-06
9.06927158e-06
9.069683131e-06
7.328305661e-06
7.328402311e-06
1.38915531e-05
1.389173697e-05
1.122487303e-05
1.122449919e-05
1.122418931e-05
1.122439548e-05
1.389336806e-05
1.389151303e-05
9.070119937e-06
9.070091203e-06
7.327777594e-06
7.327980287e-06
5.92198539e-06
5.921734349e-06
4.784325696e-06
4.784774065e-06
2.191984361e-05
2.476085217e-05
2.192000846e-05
2.476082505e-05
2.192040519e-05
2.19201974e-05
2.476074487e-05
2.476065058e-05
2.192058201e-05
2.192063529e-05
2.192055634e-05
2.192064005e-05
2.88952151e-05
2.889520423e-05
2.476037769e-05
2.476039083e-05
2.476053609e-05
2.476045144e-05
2.889522287e-05
2.889527712e-05
0.0003228939667
0.0003229093496
0.0001129371174
0.0001129403836
0.0001129420984
0.0001129399532
0.0001019714591
0.000101970961
0.0001019716393
0.0001019715254
3.359383469e-05
3.359344386e-05
3.359306783e-05
3.359343151e-05
3.359270278e-05
3.359305489e-05
3.359318607e-05
3.359284989e-05
2.889523715e-05
2.889522416e-05
2.88952342e-05
2.889517929e-05
2.128115817e-05
2.128108273e-05
2.12813685e-05
2.128119773e-05
2.128095422e-05
2.128091691e-05
2.12813734e-05
2.128106118e-05
1.719570607e-05
1.719505693e-05
1.719476329e-05
1.719498184e-05
1.719383838e-05
1.719443677e-05
1.719500601e-05
1.719462454e-05
1.389268807e-05
1.389278163e-05
1.38936272e-05
1.389218935e-05
4.785251788e-06
4.785415657e-06
3.866787187e-06
3.866776499e-06
7.328770833e-06
7.329077746e-06
5.921902334e-06
5.922035529e-06
1.122529092e-05
1.122536772e-05
9.070410096e-06
9.07012372e-06
9.069972865e-06
9.070096454e-06
1.122682377e-05
1.122501716e-05
7.329361421e-06
7.329388162e-06
5.921592944e-06
5.921715914e-06
4.785606937e-06
4.785435449e-06
3.866482079e-06
3.866806481e-06
2.128033691e-05
2.191977524e-05
2.128040226e-05
2.191969437e-05
2.128111576e-05
2.128087056e-05
2.191950657e-05
2.19192395e-05
2.128123495e-05
2.128147026e-05
2.128135017e-05
2.128151334e-05
2.476039008e-05
2.47604286e-05
2.191850901e-05
2.191862041e-05
2.191896794e-05
2.191877853e-05
2.476041828e-05
2.476043887e-05
0.0001129297382
0.0001129358173
0.0001129383118
0.0001129339314
0.000101969109
0.0001019696553
0.0001019710595
0.0001019705336
3.359441771e-05
3.359418402e-05
3.35942078e-05
3.359387364e-05
3.359435683e-05
3.359454289e-05
3.359466051e-05
3.359451721e-05
2.889605464e-05
2.889584387e-05
2.889554702e-05
2.889564614e-05
2.889532668e-05
2.889536606e-05
2.889546454e-05
2.889543755e-05
2.476047557e-05
2.476037565e-05
2.476036275e-05
2.476034042e-05
1.719573159e-05
1.719558094e-05
1.719617487e-05
1.719581145e-05
1.719600654e-05
1.719564889e-05
1.719628202e-05
1.719575473e-05
1.389483688e-05
1.389414255e-05
1.389398293e-05
1.389416059e-05
1.389340375e-05
1.389395999e-05
1.389438784e-05
1.389403469e-05
1.122582316e-05
1.122599947e-05
1.122700191e-05
1.122544651e-05
3.867072207e-06
3.867172913e-06
3.124844502e-06
3.124869127e-06
5.922265564e-06
5.922492849e-06
4.785390799e-06
4.785538171e-06
9.070741142e-06
9.070752457e-06
7.329447023e-06
7.329230046e-06
7.329180383e-06
7.329248426e-06
9.072011534e-06
9.070354268e-06
5.922669864e-06
5.922727356e-06
4.785229297e-06
4.785297776e-06
3.867269381e-06
3.867155079e-06
3.124699127e-06
3.124930752e-06
1.719512896e-05
2.128019636e-05
1.719495572e-05
2.128041476e-05
1.719586783e-05
1.719569041e-05
2.128032923e-05
2.127943145e-05
1.719578635e-05
1.719623922e-05
1.7196124e-05
1.719633918e-05
2.191849495e-05
2.191854802e-05
2.127828391e-05
2.127866925e-05
2.127912018e-05
2.12789828e-05
2.191845236e-05
2.191856716e-05
0.0001019662058
0.0001019667527
0.0001019682191
0.0001019678137
3.359463586e-05
3.35948272e-05
3.359479437e-05
3.359467817e-05
3.359467552e-05
3.359473356e-05
3.359472085e-05
3.359475952e-05
2.889662168e-05
2.889656331e-05
2.889644467e-05
2.889628933e-05
2.889671855e-05
2.889683384e-05
2.889720766e-05
2.889701535e-05
2.476113201e-05
2.476086787e-05
2.476066709e-05
2.476070512e-05
2.476059167e-05
2.476068009e-05
2.476069198e-05
2.476071025e-05
2.191828621e-05
2.19181204e-05
2.191826915e-05
2.191810454e-05
1.389461134e-05
1.389443104e-05
1.389514698e-05
1.389470621e-05
1.389512323e-05
1.389461906e-05
1.38953025e-05
1.389469647e-05
1.122757112e-05
1.122690116e-05
1.122682687e-05
1.122696903e-05
1.122647993e-05
1.122697381e-05
1.122729265e-05
1.122698089e-05
9.070894346e-06
9.071106564e-06
9.072131665e-06
9.070613808e-06
3.125053377e-06
3.125110127e-06
4.78567294e-06
4.785839858e-06
3.866983898e-06
3.867132154e-06
7.329707121e-06
7.329679953e-06
5.922629161e-06
5.922466225e-06
5.92247971e-06
5.922510172e-06
7.330744968e-06
7.329279995e-06
4.785942809e-06
4.786015769e-06
3.866920733e-06
3.866952655e-06
3.125143502e-06
3.125070252e-06
1.389418199e-05
1.719493959e-05
1.389389214e-05
1.719562322e-05
1.389484194e-05
1.389471531e-05
1.719582522e-05
1.71942771e-05
1.389465305e-05
1.389519123e-05
1.389509178e-05
1.389531631e-05
2.127827817e-05
2.127849073e-05
1.719338784e-05
1.719394346e-05
1.719414195e-05
1.719426229e-05
2.127821352e-05
2.127849558e-05
3.359422957e-05
3.359495778e-05
3.359495434e-05
3.359438934e-05
3.359489307e-05
3.359459846e-05
3.359449721e-05
3.359492468e-05
2.889834397e-05
2.889821979e-05
2.889799828e-05
2.88981198e-05
2.889741238e-05
2.889759307e-05
2.889788527e-05
2.889774941e-05
2.476159934e-05
2.476158787e-05
2.476155358e-05
2.476139551e-05
2.476166826e-05
2.47618545e-05
2.476249747e-05
2.476214632e-05
2.191853614e-05
2.191804287e-05
2.191811923e-05
2.191794732e-05
2.191845992e-05
2.19185496e-05
2.191834896e-05
2.191849318e-05
2.127702109e-05
2.127665294e-05
2.127743228e-05
2.127697163e-05
1.122722545e-05
1.122704099e-05
1.122777296e-05
1.122732127e-05
1.122783053e-05
1.122728074e-05
1.122794443e-05
1.122733761e-05
9.072298395e-06
9.071686815e-06
9.071665866e-06
9.07177781e-06
9.07147395e-06
9.071900183e-06
9.072135011e-06
9.071867569e-06
7.329629752e-06
7.3298491e-06
7.330823685e-06
7.329424369e-06
3.867201922e-06
3.867323271e-06
3.124829752e-06
3.124970877e-06
5.922832162e-06
5.922783244e-06
4.785828232e-06
4.785706761e-06
4.78575793e-06
4.785764066e-06
5.923670447e-06
5.922407048e-06
3.867375617e-06
3.867454286e-06
3.124830377e-06
3.124838002e-06
1.122693136e-05
1.389398384e-05
1.122659538e-05
1.389487103e-05
1.122749797e-05
1.122740873e-05
1.38952144e-05
1.389343042e-05
1.122725889e-05
1.122780738e-05
1.122772547e-05
1.12279384e-05
1.719355254e-05
1.719412374e-05
1.389274812e-05
1.389335555e-05
1.389340023e-05
1.389365162e-05
1.719411467e-05
1.719430649e-05
2.8898607e-05
2.889852338e-05
2.889850377e-05
2.889855469e-05
2.889841796e-05
2.889850418e-05
2.889854608e-05
2.88985053e-05
2.476464849e-05
2.476443504e-05
2.476398829e-05
2.476421191e-05
2.476285684e-05
2.47631899e-05
2.476375073e-05
2.476348619e-05
2.191877493e-05
2.191897755e-05
2.191915396e-05
2.191902435e-05
2.191883639e-05
2.191909655e-05
2.192018506e-05
2.191956493e-05
2.127601375e-05
2.127519804e-05
2.127606487e-05
2.127530766e-05
2.127753483e-05
2.12771878e-05
2.127675521e-05
2.127708051e-05
1.71927919e-05
1.719195926e-05
1.719290874e-05
1.719244628e-05
9.071910265e-06
9.071734574e-06
9.072426791e-06
9.071999137e-06
9.072525202e-06
9.071987275e-06
9.072594759e-06
9.072028294e-06
7.330745492e-06
7.330206296e-06
7.330217746e-06
7.330304946e-06
7.330127915e-06
7.330487841e-06
7.330658875e-06
7.330434915e-06
5.922621802e-06
5.922832029e-06
5.923719693e-06
5.92247352e-06
3.124997127e-06
3.125084253e-06
4.785985319e-06
4.785926102e-06
3.867221505e-06
3.867132052e-06
3.86720362e-06
3.867194574e-06
4.786656679e-06
4.785585228e-06
3.125102754e-06
3.125181004e-06
9.07171822e-06
1.122674377e-05
9.071378636e-06
1.122768266e-05
9.072192458e-06
9.072130185e-06
1.122808055e-05
1.122629361e-05
9.071937071e-06
9.072456076e-06
9.072390828e-06
9.072582886e-06
1.389299412e-05
1.3893719e-05
1.122577564e-05
1.122636757e-05
1.122632364e-05
1.122663023e-05
1.389385479e-05
1.389398505e-05
2.47650922e-05
2.476501298e-05
2.476496377e-05
2.476495805e-05
2.476482786e-05
2.47649443e-05
2.476498821e-05
2.476499412e-05
2.19236654e-05
2.192325804e-05
2.192255347e-05
2.192287901e-05
2.192076756e-05
2.1921265e-05
2.1922169e-05
2.192172458e-05
2.127639335e-05
2.127633509e-05
2.127813066e-05
2.127816059e-05
2.127639713e-05
2.127647102e-05
2.1278592e-05
2.127742921e-05
1.719174659e-05
1.719073203e-05
1.719222521e-05
1.719099951e-05
1.719395484e-05
1.719324153e-05
1.71931508e-05
1.719337819e-05
1.389255345e-05
1.389153043e-05
1.389250548e-05
1.389207276e-05
7.330358594e-06
7.330199518e-06
7.330824151e-06
7.330437343e-06
7.330938853e-06
7.33044287e-06
7.330979239e-06
7.330472031e-06
5.923500132e-06
5.923035885e-06
5.923065693e-06
5.923132805e-06
5.923041816e-06
5.923340907e-06
5.923463994e-06
5.923279278e-06
4.785705635e-06
4.785898716e-06
4.786684866e-06
4.785600678e-06
3.867341898e-06
3.867279996e-06
3.124931504e-06
3.124866254e-06
3.124947129e-06
3.124929004e-06
3.86787566e-06
3.866978609e-06
7.33024289e-06
9.071551305e-06
7.329921979e-06
9.072457068e-06
7.330632331e-06
7.330589959e-06
9.072859921e-06
9.071192802e-06
7.33038097e-06
7.330850476e-06
7.330800857e-06
7.330968111e-06
1.122605084e-05
1.122680937e-05
9.070804095e-06
9.071345949e-06
9.071254506e-06
9.07157168e-06
1.122701498e-05
1.122710296e-05
2.192449845e-05
2.192425579e-05
2.19241896e-05
2.192413258e-05
2.192401193e-05
2.192419742e-05
2.192427777e-05
2.192428349e-05
2.128415101e-05
2.128294065e-05
2.128224706e-05
2.128251815e-05
2.12795809e-05
2.128013704e-05
2.12815905e-05
2.128074339e-05
1.719226451e-05
1.719172193e-05
1.719555284e-05
1.71958485e-05
1.719205732e-05
1.719157937e-05
1.719406978e-05
1.719275162e-05
1.389156798e-05
1.389051485e-05
1.389223697e-05
1.389084664e-05
1.389398295e-05
1.38931251e-05
1.389322428e-05
1.389338269e-05
1.122581331e-05
1.122475758e-05
1.122567967e-05
1.122529223e-05
5.923138012e-06
5.922998017e-06
5.923545076e-06
5.923205814e-06
5.92366191e-06
5.923220592e-06
5.923683188e-06
5.923241871e-06
4.786391033e-06
4.785998384e-06
4.786037538e-06
4.7860885e-06
4.786054928e-06
4.786300602e-06
4.786387644e-06
4.786237281e-06
3.867033753e-06
3.867206357e-06
3.867889523e-06
3.866961569e-06
3.125023004e-06
3.124962379e-06
3.125444629e-06
3.124700629e-06
5.923077852e-06
7.330100055e-06
5.922786887e-06
7.330929702e-06
5.923392806e-06
5.923364771e-06
7.331310395e-06
7.329819276e-06
5.923157137e-06
5.923569912e-06
5.923533729e-06
5.923675552e-06
9.071077712e-06
9.071804866e-06
7.32953136e-06
7.330009421e-06
7.329895285e-06
7.330198911e-06
9.072035046e-06
9.07209399e-06
2.128588892e-05
2.12849916e-05
2.128502251e-05
2.128465946e-05
2.128475925e-05
2.12849021e-05
2.128533222e-05
2.12850869e-05
1.71984562e-05
1.719665138e-05
1.719689284e-05
1.719665334e-05
1.719504525e-05
1.719515818e-05
1.719633818e-05
1.719545606e-05
1.389211492e-05
1.389135889e-05
1.389600971e-05
1.389642798e-05
1.389180538e-05
1.389106253e-05
1.389356734e-05
1.38922619e-05
1.122493332e-05
1.122392974e-05
1.122565569e-05
1.12242711e-05
1.122728921e-05
1.122641395e-05
1.122660829e-05
1.122671898e-05
9.07096777e-06
9.069964057e-06
9.070795844e-06
9.070459113e-06
4.786065141e-06
4.785944096e-06
4.786414031e-06
4.786122341e-06
4.786525469e-06
4.786141662e-06
4.78653406e-06
4.786156828e-06
3.867564677e-06
3.867236338e-06
3.867279385e-06
3.867317764e-06
3.867321371e-06
3.867521257e-06
3.867581563e-06
3.867460558e-06
3.124711754e-06
3.124863004e-06
3.125448754e-06
3.124663879e-06
4.786044409e-06
5.922958822e-06
4.785787731e-06
5.923694683e-06
4.786296078e-06
4.786278419e-06
5.924040003e-06
5.922742227e-06
4.786081825e-06
4.786437748e-06
4.786412453e-06
4.786530521e-06
7.329786807e-06
7.330449969e-06
5.922531667e-06
5.922943572e-06
5.922822418e-06
5.923100055e-06
7.330679241e-06
7.330718508e-06
1.71995077e-05
1.719798408e-05
1.719846507e-05
1.719757422e-05
1.719896406e-05
1.719872232e-05
1.719918788e-05
1.719878543e-05
1.389698034e-05
1.389498845e-05
1.3895722e-05
1.38952219e-05
1.389446363e-05
1.389432584e-05
1.3895266e-05
1.389443244e-05
1.122545209e-05
1.12246371e-05
1.122941394e-05
1.1229869e-05
1.122510421e-05
1.122426741e-05
1.122660086e-05
1.122539447e-05
9.070207943e-06
9.069296906e-06
9.070908451e-06
9.069620686e-06
9.072370589e-06
9.071545242e-06
9.071778625e-06
9.071855875e-06
7.329755159e-06
7.328845539e-06
7.329573951e-06
7.329286249e-06
3.867278624e-06
3.867175499e-06
3.867573273e-06
3.867326021e-06
3.867675379e-06
3.867347132e-06
3.867675988e-06
3.867357591e-06
3.125120254e-06
3.124847879e-06
3.124891254e-06
3.124919754e-06
3.124946629e-06
3.125108254e-06
3.125148879e-06
3.125051879e-06
3.867285176e-06
4.785947234e-06
3.867062667e-06
4.786585946e-06
3.867484081e-06
3.867474008e-06
4.786890856e-06
4.78578263e-06
3.867293255e-06
3.86759585e-06
3.867579055e-06
3.867676183e-06
5.92276182e-06
5.923348101e-06
4.785631106e-06
4.785979672e-06
4.785860859e-06
4.786107296e-06
5.92356262e-06
5.923588318e-06
1.389757773e-05
1.389582589e-05
1.389651462e-05
1.38954043e-05
1.389739784e-05
1.389696449e-05
1.389741046e-05
1.389695415e-05
1.122922287e-05
1.122726983e-05
1.122822535e-05
1.122761573e-05
1.122738953e-05
1.122712138e-05
1.122785909e-05
1.122711309e-05
9.070671804e-06
9.069882796e-06
9.07441023e-06
9.074855883e-06
9.070324036e-06
9.069488651e-06
9.071567637e-06
9.070498683e-06
7.329115249e-06
7.328312292e-06
7.329755154e-06
7.328605043e-06
7.3310272e-06
7.330283314e-06
7.330523606e-06
7.330577353e-06
5.922776746e-06
5.921976782e-06
5.922601831e-06
5.922358889e-06
3.124873254e-06
3.124786254e-06
3.125119379e-06
3.124912129e-06
3.125210254e-06
3.124933129e-06
3.125206129e-06
3.124940254e-06
3.124897629e-06
3.867206778e-06
3.124707379e-06
3.86775295e-06
3.125053754e-06
3.125048754e-06
3.86801699e-06
3.867083579e-06
3.124886129e-06
3.125140629e-06
3.125130379e-06
3.125209629e-06
4.785833389e-06
4.786340788e-06
3.866976957e-06
3.867267915e-06
3.867156566e-06
3.867371069e-06
4.786533945e-06
4.786550596e-06
1.122952287e-05
1.122776789e-05
1.12285224e-05
1.1227369e-05
1.12295606e-05
1.122905182e-05
1.122945239e-05
1.122899975e-05
9.073557344e-06
9.071758632e-06
9.072777019e-06
9.072144859e-06
9.072241006e-06
9.071917226e-06
9.072487589e-06
9.071842949e-06
7.329514163e-06
7.328793783e-06
7.332889532e-06
7.333301451e-06
7.32918691e-06
7.32840464e-06
7.330203321e-06
7.329281978e-06
5.922246802e-06
5.921554173e-06
5.922810988e-06
5.921809951e-06
5.923895456e-06
5.923244977e-06
5.923473815e-06
5.923510713e-06
4.78587436e-06
4.785185038e-06
4.785713639e-06
4.785510785e-06
3.124835379e-06
3.125297004e-06
3.125522879e-06
3.124744629e-06
3.867151578e-06
3.867583979e-06
3.124671379e-06
3.124912129e-06
3.124810754e-06
3.124994754e-06
3.867753598e-06
3.867764502e-06
9.073665536e-06
9.072026542e-06
9.072766806e-06
9.071665895e-06
9.073826556e-06
9.073308684e-06
9.073654668e-06
9.073236716e-06
7.331694261e-06
7.33009983e-06
7.33109125e-06
7.330485561e-06
7.33076721e-06
7.330430779e-06
7.330865848e-06
7.330322294e-06
5.92258148e-06
5.921946659e-06
5.92554353e-06
5.925910455e-06
5.922284175e-06
5.921579399e-06
5.923104395e-06
5.922325693e-06
4.785440891e-06
4.784852532e-06
4.785926434e-06
4.785071491e-06
4.786837935e-06
4.786280829e-06
4.786489361e-06
4.786514087e-06
3.867205412e-06
3.866620384e-06
3.867062357e-06
3.866894234e-06
3.124820504e-06
3.125185004e-06
3.125331379e-06
3.125338129e-06
7.331682612e-06
7.330213768e-06
7.330898963e-06
7.329898116e-06
7.331906748e-06
7.331416385e-06
7.331706661e-06
7.331336436e-06
5.924206418e-06
5.922828778e-06
5.923745915e-06
5.923191432e-06
5.92356986e-06
5.923245134e-06
5.923573009e-06
5.923122586e-06
4.785716521e-06
4.785170724e-06
4.788265681e-06
4.788585287e-06
4.785453178e-06
4.784833956e-06
4.786108356e-06
4.785459139e-06
3.866854626e-06
3.866360201e-06
3.867265356e-06
3.86654473e-06
3.868023376e-06
3.86755287e-06
3.867737518e-06
3.867754315e-06
3.124879129e-06
3.124387629e-06
3.124754379e-06
3.124615879e-06
5.924123133e-06
5.922841803e-06
5.923453702e-06
5.922571671e-06
5.924372866e-06
5.923928025e-06
5.924166499e-06
5.923846999e-06
4.786910494e-06
4.785740869e-06
4.786562681e-06
4.786069349e-06
4.786487623e-06
4.786188448e-06
4.78643195e-06
4.786063148e-06
3.86707814e-06
3.866617076e-06
3.869241812e-06
3.869515502e-06
3.866848839e-06
3.866314486e-06
3.86736763e-06
3.866831987e-06
3.124597504e-06
3.124185254e-06
3.124940754e-06
3.124339129e-06
3.125566129e-06
3.125172754e-06
3.125333004e-06
3.125344379e-06
4.786786939e-06
4.785690187e-06
4.786223642e-06
4.785462411e-06
4.787039597e-06
4.786646615e-06
4.786839592e-06
4.786569589e-06
3.867941002e-06
3.866960663e-06
3.867681441e-06
3.867251164e-06
3.86767401e-06
3.867405946e-06
3.867583839e-06
3.867285168e-06
3.124776629e-06
3.124392004e-06
3.126594504e-06
3.126826004e-06
3.124579379e-06
3.124124004e-06
3.124987004e-06
3.124548754e-06
3.867798188e-06
3.866872118e-06
3.867329435e-06
3.866681938e-06
3.868040344e-06
3.867699572e-06
3.867853726e-06
3.867628927e-06
3.125387629e-06
3.124573879e-06
3.125196629e-06
3.124826504e-06
3.125233004e-06
3.124996879e-06
3.125124629e-06
3.124885004e-06
3.125239254e-06
3.124465004e-06
3.124852254e-06
3.124307504e-06
3.125463504e-06
3.125172004e-06
3.125293879e-06
3.125108629e-06
0.0002927310239
0.0002760428625
0.0003014330341
0.000282185859
9.89484813e-05
9.730849123e-05
0.0008417372594
0.0003068839883
9.896559137e-05
0.0002879660361
0.0001005488342
8.983924192e-05
8.921612027e-05
0.0008634456559
0.0003120606626
9.06577885e-05
0.0002929900155
0.0001023301546
0.000100901923
9.137805627e-05
3.020565328e-05
2.986000091e-05
2.962579196e-05
2.997152075e-05
0.0003168082863
0.0008829489982
3.009804798e-05
3.044181296e-05
0.0001027417865
0.000104018803
0.0002975014726
9.298459786e-05
9.223860276e-05
3.068848164e-05
3.034987244e-05
2.616249834e-05
2.608313052e-05
2.588657283e-05
2.596301578e-05
0.0003208684499
0.0008991904796
0.0003247228852
2.628363582e-05
2.636552961e-05
9.379573801e-05
9.447924628e-05
0.000104374467
0.0001055107681
0.0003014667844
3.11723939e-05
3.085378208e-05
3.060063619e-05
3.093097253e-05
2.657160782e-05
2.648836011e-05
2.267417704e-05
2.258956391e-05
2.242607356e-05
2.250932757e-05
0.0009120234675
0.0003277231343
0.0003307305786
0.0003048740513
2.275557853e-05
2.2841008e-05
3.109436982e-05
3.1399364e-05
3.161543726e-05
3.132564185e-05
9.519558043e-05
0.0001057885936
9.578368601e-05
0.0001067902945
2.697309988e-05
2.6893542e-05
2.669265663e-05
2.677512107e-05
2.300802398e-05
2.292292556e-05
2.029377628e-05
2.022506136e-05
2.008820142e-05
2.015629516e-05
0.0009218478087
0.0003328711429
0.0003351658479
0.0003078158541
0.0003102773716
0.0001078689203
0.0001069911907
2.036300925e-05
2.043189716e-05
2.70855006e-05
2.716020232e-05
2.733501784e-05
3.153793894e-05
2.726626873e-05
3.181192083e-05
9.639580761e-05
3.199443546e-05
3.173659834e-05
9.688665338e-05
2.332958997e-05
2.325013271e-05
2.308885021e-05
2.317194573e-05
2.056897384e-05
2.050087241e-05
1.990504288e-05
1.984342324e-05
1.971958266e-05
1.978163465e-05
0.0009292069433
0.0003366602714
0.0003383863979
0.0003124009725
0.0003141486001
0.0001080016366
0.0001087670086
0.0001095136122
0.0001088483103
9.780354156e-05
9.740059734e-05
1.996656501e-05
2.002756393e-05
2.340346331e-05
2.347791086e-05
2.361512285e-05
2.743285686e-05
2.354649854e-05
2.749506722e-05
3.191540362e-05
3.215726536e-05
2.76410811e-05
2.758540482e-05
3.230700237e-05
3.208082892e-05
2.083003842e-05
2.076735362e-05
2.063653737e-05
2.070255006e-05
2.01478144e-05
2.00879759e-05
1.621225723e-05
1.616678243e-05
1.607477491e-05
1.612093622e-05
0.0009346266319
0.0003394148493
0.0003406972939
0.0003156648722
0.0003168949105
0.0001095535848
0.0001101299394
0.0001106414581
0.0001101437243
9.823109173e-05
9.85594725e-05
9.918130113e-05
9.891442493e-05
3.256037949e-05
3.236390927e-05
3.222813395e-05
3.243918786e-05
1.625788817e-05
1.630264749e-05
2.089094853e-05
2.094930364e-05
2.105896137e-05
2.367770679e-05
2.100552623e-05
2.374012338e-05
2.772310309e-05
2.777251062e-05
2.385294988e-05
2.379667358e-05
2.789114386e-05
2.784750615e-05
2.03739705e-05
2.031975321e-05
2.020643638e-05
2.026393858e-05
1.639079938e-05
1.634690223e-05
1.320189558e-05
1.3169e-05
1.310203474e-05
1.313566953e-05
0.0009385587118
0.0003413974881
0.0003423388948
0.0003179694672
0.000318829048
0.000110634064
0.0001110622696
0.0001114112335
0.0001110444134
9.947532963e-05
9.969222933e-05
0.0001001127862
9.993639764e-05
3.248405884e-05
3.266670098e-05
3.276436137e-05
3.259489319e-05
3.292839262e-05
3.27831031e-05
3.269266773e-05
3.284973955e-05
2.809235297e-05
2.805868039e-05
2.795873978e-05
2.799711507e-05
1.323509879e-05
1.326732881e-05
2.042640187e-05
2.0476561e-05
2.057080345e-05
2.111002898e-05
2.052479304e-05
2.115817853e-05
2.390355319e-05
2.395396851e-05
2.124710212e-05
2.120402274e-05
2.404415128e-05
2.39991164e-05
1.655431657e-05
1.651535625e-05
1.64333753e-05
1.647516331e-05
1.333080974e-05
1.329915976e-05
1.074875019e-05
1.072553078e-05
1.06779821e-05
1.070188823e-05
0.0009413691951
0.0003428114278
0.0003434935515
0.0003195857649
0.0003201831779
0.0001113840125
0.0001116969592
0.0001119337979
0.0001116678988
0.0001003149987
0.0001004584333
0.0001007427332
0.0001006262505
3.286264845e-05
3.299694784e-05
3.306042242e-05
3.293649562e-05
3.316691608e-05
3.306178249e-05
3.300136039e-05
3.311562791e-05
2.814763575e-05
2.817714177e-05
2.825338259e-05
2.822749282e-05
2.838235246e-05
2.836245085e-05
2.82985734e-05
2.832126785e-05
2.419559513e-05
2.415993635e-05
2.408424407e-05
2.412435936e-05
1.077236245e-05
1.07950308e-05
1.659214226e-05
1.662772482e-05
1.669517112e-05
2.061451263e-05
1.666233447e-05
2.065555973e-05
2.128793849e-05
2.132611238e-05
2.073140092e-05
2.069435014e-05