/*--------------------------------*- C++ -*----------------------------------*\
  =========                 |
  \\      /  F ield         | OpenFOAM: The Open Source CFD Toolbox
   \\    /   O peration     | Website:  https://openfoam.org
    \\  /    A nd           | Version:  8
     \\/     M anipulation  |
\*---------------------------------------------------------------------------*/






FoamFile
{
    version     2.0;
    format      ascii;
    class       volScalarField;
    location    "0";
    object      pDDES;
}
// * * * * * * * * * * * * * * * * * * * * * * * * * * * * * * * * * * * * * //

dimensions      [0 2 -2 0 0 0 0];


internalField   nonuniform List<scalar> 
10597
(
0.0001283402962
0.0001285523904
0.0001239446137
0.0001241995487
0.0001328087674
0.0001327960781
0.0001185508809
0.0001270500943
0.0001209405746
0.0001353891421
0.0001300471631
0.0001346182253
0.0001112669124
0.0001210414048
0.0001270632929
0.0001375282591
0.0001334265835
0.0001307369821
0.0001366558427
0.0001131287863
0.0001051758882
0.0001208458925
0.0001243259176
0.0001307272469
0.0001404460636
0.0001357342699
0.0001329141232
0.0001396315783
0.000116992087
0.0001071828374
9.932454122e-05
0.0001208084577
0.0001259009587
0.0001323681936
0.0001286933693
0.0001412974816
0.000138794232
0.0001350456005
0.0001405023213
0.0001170963515
0.0001012973007
0.0001168736126
0.0001090213555
8.890045137e-05
0.0001228900655
0.0001286818733
0.0001343681943
0.0001313157991
0.0001418284664
0.0001396908629
0.0001380257163
0.0001410448895
0.0001200287807
0.0001033410517
9.574223077e-05
0.0001165767171
0.0001121358946
9.0552232e-05
7.998934598e-05
0.0001238595578
0.0001306491176
0.0001265213214
0.0001373148552
0.0001335668057
0.0001421213674
0.0001402557245
0.0001389041427
0.0001413431164
0.0001214753647
0.0001054013046
9.77428208e-05
0.000117349271
0.0001121909881
8.157343109e-05
9.242900705e-05
7.256898971e-05
0.0001238752593
0.0001327934588
0.0001297864947
0.0001274400565
0.0001381676993
0.0001365416101
0.0001422615896
0.0001405729417
0.0001394578285
0.0001414844446
0.000121748526
9.98077885e-05
0.0001074206521
0.0001146071445
0.0001146921422
0.0001185129222
8.503755089e-05
7.533138705e-05
9.442885494e-05
6.915238191e-05
0.0001274325477
0.0001357882575
0.0001320598531
0.0001294940157
0.0001386952645
0.0001373927662
0.0001423227513
0.0001407305972
0.0001397683518
0.0001415490697
0.0001258347766
0.0001258240809
0.0001019548508
0.0001114266634
0.000114791299
0.0001148372685
0.000120597957
7.700946298e-05
9.654572932e-05
9.370478074e-05
8.89429939e-05
7.174409257e-05
6.349907926e-05
0.000129108128
0.0001366491342
0.0001350524835
0.0001331966778
0.0001389838144
0.0001379161404
0.0001423542417
0.0001408073585
0.0001399212488
0.000141584198
0.0001282914163
0.0001234267111
0.0001276566327
0.0001113184553
0.0001039864292
0.0001115334671
0.0001197437959
0.0001171496478
0.0001206127781
8.073475328e-05
7.334590191e-05
9.878569108e-05
9.611019777e-05
9.128577221e-05
6.582546484e-05
5.880863318e-05
0.0001326437923
0.0001371775579
0.0001359172165
0.000134417176
0.0001391208789
0.0001382002229
0.0001408323587
0.0001399917819
0.0001319881121
0.0001241999998
0.0001266552426
0.0001313063403
0.0001113457984
0.0001073239619
0.000114139475
0.0001197385791
0.0001178842795
0.0001241915161
7.376242866e-05
8.506187442e-05
8.927303134e-05
6.729237066e-05
0.0001011533968
9.867830522e-05
9.382848657e-05
6.096556172e-05
0.0001338367292
0.000137462077
0.0001364518394
0.0001352524851
0.0001391828264
0.0001383333292
0.000140026561
0.0001331830135
0.0001262662408
0.0001288863859
0.000132538582
0.0001119405497
0.0001073917883
0.0001156365543
0.0001224476
0.0001224573789
0.0001178989696
0.0001206574743
0.0001258299017
7.788313087e-05
7.05835555e-05
8.764889208e-05
9.197820327e-05
6.370266055e-05
0.0001035720124
0.0001101261005
0.0001101808011
0.0001079611393
0.0001012237917
0.0001080201982
9.656925249e-05
0.0001346421923
0.0001375925058
0.000136744362
0.000135770897
0.0001392087142
0.0001383913332
0.0001339933951
0.0001299712458
0.0001318409486
0.0001333768305
0.0001128205186
0.0001161867476
0.00012440102
0.0001249447523
0.0001216852106
0.0001216796663
0.0001237386023
0.0001294120739
7.454927254e-05
8.641717432e-05
6.539816968e-05
9.050739027e-05
9.48901361e-05
0.0001102902752
0.0001108652141
0.0001085622789
0.000108147884
0.0001051603758
9.944168414e-05
0.0001351377286
0.0001376474247
0.0001368834928
0.0001360540482
0.0001384192874
0.0001344918564
0.0001311956003
0.0001327030477
0.0001338981965
0.0001159408566
0.0001204707878
0.0001204624714
0.0001264905877
0.0001271147921
0.0001236034441
0.0001233700605
0.0001259221026
0.0001306139748
7.933742745e-05
6.907386705e-05
9.281515668e-05
8.890136087e-05
9.362428682e-05
9.797660459e-05
0.0001135908533
0.0001120923844
0.0001109609657
0.0001096259657
0.0001052487496
0.0001082125818
0.000102503931
0.0001081684022
0.0001354025735
0.0001376746513
0.0001369449747
0.0001361885224
0.0001347634825
0.0001320366573
0.0001332469546
0.000134185495
0.0001159588574
0.0001185512738
0.0001227818284
0.0001223180734
0.0001293711975
0.000129972701
0.0001255923853
0.0001252786024
0.0001288073836
0.0001314236724
7.347577048e-05
7.911272405e-05
8.527782484e-05
9.636591858e-05
9.693459288e-05
9.247790149e-05
0.0001068164493
0.0001068517595
0.0001012774519
0.0001155507416
0.0001137682411
0.0001129069351
0.0001108865908
0.0001083256429
0.0001090437509
0.0001355242275
0.0001369699894
0.0001362466719
0.0001348916558
0.0001325635967
0.0001335531706
0.0001343262265
0.0001194717188
0.0001194659126
0.000121576013
0.0001247986802
0.0001242855942
0.0001301905431
0.000130779139
0.0001283693127
0.0001279956341
0.000129631444
0.0001319210714
7.893949805e-05
8.533806249e-05
8.877711662e-05
0.000105363506
0.0001053682208
0.0001005294398
0.0001012941939
0.0001058706985
0.0001058870257
9.61668411e-05
0.0001011626082
0.0001069807258
0.00010793205
0.0001182324922
0.0001182387496
0.0001174195422
0.0001174238714
0.0001137008148
0.0001161465771
0.0001121546884
0.0001114260667
0.0001108463475
0.0001355747518
0.0001362732291
0.000134946953
0.0001328578073
0.0001337069261
0.0001343914919
0.0001213808064
0.0001211216586
0.000123707403
0.0001275438117
0.0001270780049
0.0001306880004
0.0001312717359
0.0001291702356
0.0001287755586
0.0001301397278
0.0001321896998
8.581845032e-05
8.219842857e-05
8.910932956e-05
9.605241939e-05
0.0001055134635
0.0001072275845
0.0001073537424
0.0001055227476
0.0001060309878
0.0001021573044
0.0001036801477
0.0001102875976
0.0001098567955
0.0001201379928
0.0001205099252
0.0001194772776
0.0001197169331
0.000117456686
0.0001174558711
0.000119083983
0.0001168217277
0.00011681662
0.0001162684348
0.0001162664485
0.0001157418374
0.0001157459556
0.0001355962886
0.0001349762606
0.0001330027735
0.0001337823051
0.0001344182674
0.0001233364601
0.0001230100897
0.0001265386236
0.0001283419842
0.000127896812
0.0001309525542
0.0001315355476
0.0001296651317
0.0001292567904
0.0001304150792
0.0001323165634
9.303873958e-05
9.312659677e-05
9.719494119e-05
0.0001021920034
9.729350859e-05
0.0001090212245
0.0001092582097
0.0001094763211
0.000109745939
0.0001097231216
0.0001023388613
0.0001057168702
0.0001152966943
0.0001152948535
0.0001148034789
0.0001148005904
0.0001221403218
0.0001225517917
0.0001215196971
0.0001217731915
0.0001192265991
0.0001191712363
0.0001212458956
0.0001188566093
0.000118613134
0.0001183025743
0.000118110358
0.0001176561054
0.0001178199745
0.0001330714731
0.0001338091679
0.0001260727149
0.0001256907999
0.0001273627277
0.0001288437488
0.0001284121827
0.0001310722582
0.0001316571725
0.0001299349242
0.0001295173715
0.0001305436308
0.0001323731558
9.896435949e-05
9.892587696e-05
9.524392226e-05
0.0001000637858
0.0001060076538
0.0001017468167
0.0001139773231
0.0001139793676
0.0001142127294
0.0001142138135
0.0001145083297
0.0001145068964
0.0001137286017
0.0001137290674
0.0001114165498
0.0001081144437
0.0001097855857
0.0001174057179
0.0001172030679
0.0001168969975
0.0001167352166
0.0001248867775
0.000125254679
0.0001243356237
0.0001245652529
0.0001226712338
0.0001210068149
0.0001240893325
0.0001206989327
0.0001204181608
0.0001201301056
0.000119942677
0.0001195683362
0.0001197113525
0.0001331059902
0.0001268669148
0.0001264518651
0.0001278803538
0.000129126347
0.0001287015621
0.0001311212836
0.0001317099086
0.0001300602162
0.0001296388364
0.0001305977057
0.0001323989418
0.000102745631
0.0001022324577
0.0001010328342
0.000105111525
0.0001091332233
0.0001073954918
0.0001160513639
0.000115926101
0.0001162027183
0.0001163085835
0.0001164748537
0.0001165732392
0.0001157507359
0.0001156818253
0.0001136426217
0.000113641232
0.000110201865
0.0001118919317
0.0001193278804
0.0001191038318
0.0001188156311
0.000118648939
0.0001256588002
0.0001260139252
0.0001251375652
0.0001253520313
0.0001238223631
0.0001235466916
0.0001249232009
0.0001231861679
0.0001228948822
0.0001226225868
0.0001224607986
0.0001222248538
0.0001223015424
0.0001273611997
0.0001269157801
0.000128170228
0.0001292675297
0.0001288468047
0.0001311456872
0.000131736233
0.0001301119919
0.0001296896808
0.0001306213089
0.0001050871797
0.0001056704787
0.0001043215016
0.0001067723642
0.000110413268
0.0001085443801
0.000117976706
0.0001178334933
0.0001181737971
0.0001182699925
0.0001184098364
0.0001184817083
0.0001176466612
0.0001190647381
0.0001155997961
0.0001154216297
0.0001120756788
0.0001120741072
0.000114756891
0.0001219888945
0.0001217185345
0.0001214294971
0.000121240133
0.0001261258003
0.0001264749444
0.0001256293326
0.0001258276752
0.0001246165339
0.0001242744911
0.0001254555973
0.0001238885889
0.0001235930686
0.0001233248768
0.0001231725619
0.000123001053
0.0001230386988
0.0001276346447
0.0001271645597
0.0001283153688
0.0001293359092
0.0001289186475
0.0001301358861
0.0001297183771
0.0001076478875
0.0001085308031
0.000106837193
0.0001094931067
0.0001123308466
0.0001123313705
0.0001108780561
0.0001206166708
0.0001204088476
0.000120863675
0.0001209570037
0.0001210191476
0.0001210781702
0.0001202152271
0.0001201346022
0.0001189748655
0.0001189209652
0.0001142354813
0.0001143554618
0.0001186091104
0.0001227637258
0.0001224663138
0.0001221616549
0.0001219625774
0.0001263716986
0.000126720799
0.0001258960401
0.0001260813879
0.0001251185604
0.0001247231557
0.0001257641852
0.0001243183069
0.0001240137353
0.0001237504621
0.0001236020325
0.0001234936644
0.00012349381
0.0001277681877
0.0001272793743
0.0001283856836
0.0001293630776
0.0001289477805
0.0001103265531
0.000110323861
0.0001113826293
0.0001102748283
0.0001127535943
0.0001142744441
0.0001141756875
0.0001135655184
0.000121369143
0.0001211320268
0.0001216389064
0.0001217241297
0.0001217512618
0.0001218020334
0.0001209298061
0.0001208431277
0.0001200581028
0.0001200534098
0.0001180078907
0.0001182013075
0.000119800141
0.0001232528739
0.0001229262998
0.0001226088789
0.0001223960135
0.0001264821476
0.0001268327323
0.000126023413
0.0001261953148
0.0001254056697
0.0001249697088
0.0001259273122
0.0001245507301
0.0001242388098
0.0001239759149
0.0001238302066
0.0001237800025
0.0001237447141
0.0001278280251
0.0001273272501
0.0001284168538
0.0001125098424
0.0001122658869
0.0001157298975
0.0001150122771
0.0001169871975
0.0001178867387
0.0001178165185
0.0001175601064
0.0001218373218
0.0001215734956
0.0001221304847
0.0001222081191
0.0001221964485
0.0001222388819
0.0001213619544
0.000121270321
0.0001207834139
0.0001208234316
0.0001191982738
0.0001194175711
0.000120595374
0.0001235313102
0.0001231808128
0.0001228505716
0.0001226266468
0.0001265225001
0.0001268761407
0.0001260760619
0.000126237821
0.000125554041
0.0001250877394
0.0001260129357
0.0001246605825
0.0001243380684
0.0001240761776
0.0001239300473
0.0001239302219
0.0001238648256
0.0001278588024
0.0001273462985
0.0001165023641
0.0001162136468
0.0001170800388
0.0001165233261
0.0001183061831
0.0001190499243
0.0001189712493
0.0001188074093
0.0001221001876
0.0001218121761
0.0001224130829
0.0001224842999
0.0001224383741
0.0001224691368
0.0001215929587
0.0001214949953
0.0001212321076
0.0001213115247
0.0001199884427
0.0001202295171
0.000121089528
0.000123676451
0.0001233036455
0.0001229642512
0.0001227287867
0.0001265368628
0.0001268980996
0.0001261149446
0.0001262544538
0.0001256274845
0.0001251427748
0.0001260241552
0.0001247055334
0.0001243758888
0.0001241127757
0.0001239647245
0.0001240098063
0.0001239124831
0.0001178036619
0.0001174809659
0.0001179926476
0.0001175754587
0.0001191950432
0.0001198189275
0.0001197416132
0.0001196568483
0.0001222298015
0.0001219252372
0.0001225579908
0.0001226251043
0.000122547659
0.000122572048
0.00012169603
0.0001215925149
0.0001214786171
0.0001215945522
0.0001204658911
0.0001207275564
0.0001213669748
0.0001237496326
0.0001233617659
0.0001230115013
0.0001227679604
0.0001256676624
0.0001251695794
0.0001247320179
0.0001243899169
0.0001241330756
0.000123972859
0.0001240135171
0.0001239556586
0.0001186780428
0.0001183257264
0.0001185609945
0.000118265285
0.0001197479069
0.0001202825079
0.0001202169369
0.0001201984924
0.0001222942956
0.0001219732003
0.0001226361783
0.0001226934401
0.0001225907763
0.0001226079912
0.0001217353638
0.0001216236778
0.0001215947486
0.000121745441
0.0001207186579
0.0001209981565
0.0001215078082
0.0001237887045
0.0001233890071
0.0001230375346
0.0001227828761
0.0001192153359
0.000118840675
0.0001188812093
0.0001186785812
0.0001200606785
0.0001205264052
0.0001204796354
0.0001205159788
0.0001223338331
0.0001219956466
0.0001226540626
0.0001227160392
0.0001226136083
0.0001226244494
0.0001217565004
0.0001216298333
0.0001216413802
0.0001218277175
0.0001208314861
0.0001211302879
0.0001215824013
0.0001195063669
0.0001191146948
0.0001190383628
0.0001189124523
0.0001202161511
0.0001206339293
0.0001206048764
0.0001206851957
0.0001216842502
0.0001218267935
0.0001208706526
0.0001211877679
0.0001216199744
0.0001196405065
0.0001192342534
0.0001191053743
0.0001190475377
0.000120295037
0.0001206683155
0.0001206568922
0.0001207798414
0.0001208836111
0.0001212127099
0.0001196965386
0.0001192758136
0.0001191681222
0.0001190297626
0.000120339726
0.0001206770903
0.0001207044988
0.000120769997
0.0001197246893
0.0001192896816
0.0001181095868
0.0001168960735
0.0001180364779
0.0001160085376
0.0001168637173
0.0001179219107
0.0001152100594
0.0001159316889
0.0001167878145
0.0001177105441
0.0001152189361
0.0001135092898
0.000115854069
0.0001166194997
0.0001173208439
0.0001150642056
0.000113448521
0.0001111116071
0.000115672221
0.0001162794724
0.000116655945
0.0001147990406
0.0001132970356
0.0001110444937
0.0001087088822
0.0001153113262
0.0001156768485
0.0001156235521
0.0001143352856
0.0001130381861
0.0001109307195
0.000108655644
0.0001063972231
0.0001146791328
0.0001147197836
0.0001141377725
0.0001135808561
0.0001125841591
0.0001107172866
0.0001085680487
0.0001063728778
0.0001040721545
0.0001136929204
0.0001133268379
0.0001097162312
0.0001124525006
0.0001118317305
0.0001103190734
0.0001083854804
0.0001062958618
0.0001040411953
0.0001018272742
0.0001122709436
0.0001091777231
0.0001072750238
0.0001108796714
0.0001106907876
0.0001096309861
0.0001080229849
0.0001061287767
0.0001039837225
0.0001018081748
9.973005945e-05
0.0001079212961
0.0001072700688
0.0001052184161
0.000106208885
0.0001090872538
0.0001085616241
0.0001073849853
0.0001057917252
0.0001038407063
0.0001017600953
9.971574764e-05
9.775910439e-05
0.0001052546359
0.0001029762352
0.0001034465095
0.0001032416985
0.0001043284574
0.0001070275612
0.0001063785312
0.0001051879808
0.0001035404421
0.0001016369642
9.967870574e-05
9.774907812e-05
9.589629917e-05
0.0001007219107
0.0001017814939
9.995792061e-05
0.000101351201
0.0001023918448
0.0001049183484
0.0001042299846
0.000102987251
0.0001013667934
9.957045404e-05
9.772005433e-05
9.589016554e-05
9.412811778e-05
9.926909115e-05
9.916703129e-05
9.82556885e-05
9.514399426e-05
9.992745618e-05
0.0001004601218
0.0001028350671
0.0001020907148
0.0001008555919
9.932063404e-05
9.7621436e-05
9.586397937e-05
9.412082727e-05
9.244554531e-05
9.809124458e-05
9.755586507e-05
9.579995822e-05
9.50373942e-05
8.966268797e-05
9.810779738e-05
9.853663505e-05
0.0001007697138
0.000100010715
9.883908206e-05
9.738582594e-05
9.577356104e-05
9.409789345e-05
9.244202374e-05
9.084190242e-05
9.683472308e-05
9.593059076e-05
9.408133337e-05
9.130781109e-05
8.646998322e-05
9.626252722e-05
9.665345715e-05
9.875572869e-05
9.80336772e-05
9.692645835e-05
9.555102588e-05
9.401379066e-05
9.242052329e-05
9.083864279e-05
8.930725016e-05
9.504002082e-05
9.449370555e-05
9.223472443e-05
9.121669427e-05
8.346189861e-05
7.929255662e-05
9.446063632e-05
9.480254084e-05
9.683089593e-05
9.615362069e-05
9.511034295e-05
9.380256961e-05
9.234136814e-05
9.082029283e-05
8.930606418e-05
8.783086378e-05
9.331211913e-05
9.247706475e-05
9.07091744e-05
8.809157589e-05
7.661556447e-05
8.800603973e-05
8.063450514e-05
7.364781777e-05
9.268001304e-05
9.302636317e-05
9.499144653e-05
9.436636174e-05
9.337697702e-05
9.213769226e-05
9.07437352e-05
8.928892203e-05
8.782946679e-05
8.6408887e-05
9.106172365e-05
9.154408326e-05
8.893873019e-05
7.413192361e-05
8.502080163e-05
7.797764556e-05
8.493808127e-05
6.911081437e-05
6.864171883e-05
9.09802111e-05
9.130628314e-05
9.324184794e-05
9.265621338e-05
9.172512364e-05
9.0544454e-05
8.921411791e-05
8.781389624e-05
8.640910528e-05
8.503301069e-05
8.749301196e-05
8.913498459e-05
8.990069909e-05
7.181131514e-05
8.204016922e-05
7.548223948e-05
8.21199792e-05
6.499813753e-05
6.447850319e-05
6.452472735e-05
8.932016499e-05
8.966513269e-05
9.15601413e-05
9.10229428e-05
9.014189709e-05
8.901787078e-05
8.773919399e-05
8.63938767e-05
8.503443678e-05
8.370049181e-05
8.581252769e-05
8.778463234e-05
8.825158875e-05
6.961202598e-05
7.939335774e-05
8.444505511e-05
7.311790978e-05
7.931730215e-05
6.749598833e-05
6.100006067e-05
6.066142305e-05
6.057676001e-05
6.112049596e-05
8.773847367e-05
8.807428094e-05
8.995751705e-05
8.945689478e-05
8.862602408e-05
8.754868759e-05
8.632225217e-05
8.50193901e-05
8.37020998e-05
8.240369789e-05
8.59944048e-05
8.672229887e-05
8.287013043e-05
7.677426038e-05
7.085486868e-05
7.684672164e-05
8.161245205e-05
6.542484334e-05
5.703618808e-05
5.693279309e-05
6.335346552e-05
5.696451262e-05
5.735478044e-05
5.955227243e-05
8.619461005e-05
8.655872807e-05
8.841264935e-05
8.795344183e-05
8.716127195e-05
8.613176033e-05
8.49464268e-05
8.368838462e-05
8.24052986e-05
8.114594675e-05
8.472907939e-05
8.518597315e-05
7.438772445e-05
7.891740825e-05
7.431830454e-05
6.862432929e-05
8.013488696e-05
5.926754602e-05
5.336708273e-05
5.325704842e-05
6.129202666e-05
5.352069275e-05
5.391399463e-05
5.590563887e-05
5.70127886e-05
8.472870104e-05
8.508833707e-05
8.693212294e-05
8.650192467e-05
8.575211541e-05
8.475899085e-05
8.361535583e-05
8.239057934e-05
8.114695811e-05
7.992353494e-05
8.307628741e-05
8.376542246e-05
7.750809891e-05
8.187908679e-05
7.636692317e-05
7.203510177e-05
7.196652587e-05
6.642949302e-05
5.732748104e-05
6.428898632e-05
4.98271329e-05
5.54956423e-05
5.01480099e-05
5.016013893e-05
5.069108374e-05
5.255894212e-05
5.35917643e-05
5.497814345e-05
8.329989214e-05
8.367415285e-05
8.410331066e-05
8.510155021e-05
8.43830785e-05
8.342940419e-05
8.231979155e-05
8.11321006e-05
7.992464816e-05
7.873991854e-05
8.234447159e-05
8.030859317e-05
7.921188808e-05
7.502914377e-05
6.975539873e-05
7.394673594e-05
6.968841626e-05
6.223465607e-05
6.742916594e-05
6.749422027e-05
4.697634722e-05
4.675173841e-05
6.02981454e-05
5.378901187e-05
4.729491047e-05
5.218848673e-05
4.75692068e-05
4.941748193e-05
5.04098025e-05
5.172559031e-05
8.192710084e-05
8.229336527e-05
8.274335414e-05
8.374038589e-05
8.305678784e-05
8.213428373e-05
8.106174937e-05
7.990904123e-05
7.873967115e-05
7.758998254e-05
8.101046842e-05
7.771322271e-05
7.266224566e-05
7.66610392e-05
7.159850793e-05
6.533408305e-05
6.539600145e-05
6.928896619e-05
7.030386041e-05
4.459003321e-05
4.401011756e-05
4.395790165e-05
6.336040678e-05
5.848026922e-05
6.330272299e-05
4.464428639e-05
4.92675681e-05
5.068819519e-05
5.678341404e-05
4.638830433e-05
4.738062125e-05
4.870202247e-05
8.05747768e-05
8.096362581e-05
8.141008584e-05
8.242234617e-05
8.176507981e-05
8.088011964e-05
7.984029071e-05
7.872390415e-05
7.759018627e-05
7.647110033e-05
7.965866826e-05
7.524585817e-05
7.838876627e-05
7.42213233e-05
6.714690971e-05
6.810104242e-05
7.184871356e-05
7.284658204e-05
4.350371455e-05
4.173949492e-05
4.12398731e-05
4.133840048e-05
6.599638436e-05
6.148198008e-05
6.142811617e-05
6.509255036e-05
4.20587603e-05
4.656063538e-05
4.789972081e-05
5.365131074e-05
5.517781756e-05
5.966313256e-05
5.971370047e-05
4.449651169e-05
4.57873175e-05
7.92745268e-05
7.965615805e-05
8.011996397e-05
8.113415242e-05
8.051290934e-05
7.965951227e-05
7.865485532e-05
7.757156709e-05
7.647003076e-05
7.537993952e-05
7.710528007e-05
7.589197048e-05
6.965581269e-05
7.058947085e-05
7.350566739e-05
7.466272655e-05
4.178987365e-05
4.072071897e-05
3.901567834e-05
3.863771781e-05
3.883969475e-05
6.841993309e-05
6.404443411e-05
6.319130625e-05
6.757333904e-05
3.943849151e-05
4.391294351e-05
4.523172538e-05
5.074039655e-05
5.218001024e-05
5.641613825e-05
5.646299542e-05
5.802688611e-05
5.79781663e-05
6.140628102e-05
6.221098738e-05
4.301454828e-05
7.799133164e-05
7.838875899e-05
7.885376544e-05
7.988882135e-05
7.929597632e-05
7.847706729e-05
7.750352961e-05
7.645302685e-05
7.53786444e-05
7.431716949e-05
7.675139204e-05
7.125701086e-05
7.234282384e-05
7.434118015e-05
7.552315947e-05
4.037746476e-05
3.91315225e-05
3.80360143e-05
3.645667675e-05
3.618436313e-05
3.631260915e-05
7.016203017e-05
6.641499203e-05
6.561838381e-05
6.914349797e-05
3.666877456e-05
4.123274266e-05
4.25854887e-05
4.792778782e-05
4.932656884e-05
5.332801811e-05
5.337245966e-05
5.489964678e-05
5.485428119e-05
5.810176663e-05
5.88299481e-05
6.04573288e-05
5.970478742e-05
6.377599493e-05
6.452325761e-05
7.714265666e-05
7.763216126e-05
7.867635577e-05
7.811637624e-05
7.732738595e-05
7.638510579e-05
7.536241901e-05
7.431585254e-05
7.328121865e-05
7.207300951e-05
7.318308781e-05
7.593936607e-05
3.775738151e-05
3.648194979e-05
3.549074972e-05
3.404665404e-05
3.374835433e-05
3.365405792e-05
7.098416972e-05
6.811709318e-05
6.715669588e-05
6.994234718e-05
3.98362572e-05
3.839475175e-05
4.512978921e-05
4.653641372e-05
5.03888441e-05
5.043161946e-05
5.189042713e-05
5.184708789e-05
5.489568139e-05
5.561779108e-05
5.721641719e-05
5.648456863e-05
6.033825775e-05
6.105150533e-05
6.273569306e-05
6.20069477e-05
6.527890946e-05
6.618854241e-05
7.644003199e-05
7.750291115e-05
7.697116234e-05
7.621026452e-05
7.52941196e-05
7.429918332e-05
7.327936328e-05
7.227280003e-05
7.363627083e-05
7.476578321e-05
3.51056915e-05
3.392241342e-05
3.308907617e-05
3.168323383e-05
3.120527617e-05
7.253212243e-05
6.892043893e-05
6.793925422e-05
7.147157157e-05
4.3678363e-05
4.218038885e-05
4.752097448e-05
4.756437193e-05
4.899453779e-05
4.895211168e-05
5.187249189e-05
5.255496944e-05
5.406729906e-05
5.33710845e-05
5.704507203e-05
5.772306395e-05
5.937182868e-05
5.868601511e-05
6.177544128e-05
6.26139954e-05
6.436158583e-05
6.349672913e-05
6.604477676e-05
6.697337813e-05
7.529137656e-05
7.636354712e-05
7.585739513e-05
7.512017328e-05
7.423202624e-05
7.32641638e-05
7.227237802e-05
7.129096048e-05
3.254441617e-05
3.151185956e-05
3.074111373e-05
2.92340992e-05
7.417275629e-05
7.043418009e-05
6.943303742e-05
7.309259672e-05
4.608882227e-05
4.604427522e-05
4.45268488e-05
4.45723781e-05
4.895708116e-05
4.9630391e-05
5.107724428e-05
5.041681288e-05
5.389995204e-05
5.453122867e-05
5.610630615e-05
5.545135355e-05
5.841791426e-05
5.923640128e-05
6.091468094e-05
6.008788478e-05
6.250440492e-05
6.336266233e-05
6.512820255e-05
6.42437808e-05
6.750383181e-05
6.845410098e-05
7.525751425e-05
7.477243344e-05
7.40606265e-05
7.319734141e-05
7.225738227e-05
7.129096775e-05
7.033162547e-05
3.011875197e-05
2.915218829e-05
2.832438986e-05
7.203800487e-05
7.101793017e-05
4.814434578e-05
4.74603512e-05
4.593064295e-05
4.663111395e-05
5.092300125e-05
5.15449683e-05
5.301608689e-05
5.240207247e-05
5.519919068e-05
5.59673681e-05
5.758056432e-05
5.677956506e-05
5.911327753e-05
5.995037645e-05
6.164496881e-05
6.079954255e-05
6.389605551e-05
6.477242277e-05
6.657223275e-05
6.566791126e-05
6.90506713e-05
7.001788617e-05
7.417806046e-05
7.371634274e-05
7.30282045e-05
7.219179679e-05
7.127635763e-05
7.033222209e-05
6.938848674e-05
2.774624409e-05
2.674220195e-05
7.313098467e-05
5.00425158e-05
4.942067972e-05
4.788714068e-05
4.851509584e-05
5.21902839e-05
5.292617789e-05
5.442312613e-05
5.368272105e-05
5.586127008e-05
5.664625132e-05
5.827580026e-05
5.745732415e-05
6.044589099e-05
6.129848043e-05
6.302292604e-05
6.216128531e-05
6.537158333e-05
6.626518007e-05
6.80998055e-05
6.717694487e-05
7.111293962e-05
7.210698823e-05
7.268799527e-05
7.202279085e-05
7.121046656e-05
7.031678251e-05
6.938797014e-05
6.845795724e-05
2.535483691e-05
5.142286682e-05
5.067036182e-05
4.913339944e-05
4.988965156e-05
5.283339488e-05
5.358045382e-05
5.508685717e-05
5.43328606e-05
5.714113286e-05
5.793986202e-05
5.959573173e-05
5.876225623e-05
6.186436804e-05
6.272978499e-05
6.448202475e-05
6.360565021e-05
6.734323688e-05
6.826060417e-05
7.014121366e-05
6.919362932e-05
7.168545562e-05
7.104209362e-05
7.025177183e-05
6.937254511e-05
6.84568513e-05
6.753908383e-05
5.207223876e-05
5.131042053e-05
4.977479693e-05
5.053820496e-05
5.407859499e-05
5.483334826e-05
5.635725029e-05
5.559267447e-05
5.851247261e-05
5.932182466e-05
6.100208702e-05
6.015599138e-05
6.376803503e-05
6.464767648e-05
6.643489178e-05
6.55384647e-05
6.788955943e-05
6.881450827e-05
7.070755964e-05
6.975325232e-05
7.008430111e-05
6.930822565e-05
6.844116433e-05
6.753709749e-05
6.663076783e-05
5.331465945e-05
5.254796633e-05
5.101080751e-05
5.177621642e-05
5.541545397e-05
5.617649003e-05
5.771837095e-05
5.694451465e-05
6.037181811e-05
6.11928408e-05
6.289563316e-05
6.203688099e-05
6.42973755e-05
6.517993461e-05
6.697673234e-05
6.607536488e-05
6.821322313e-05
6.9141126e-05
6.83770777e-05
6.752190529e-05
6.663048407e-05
6.573324936e-05
5.464680362e-05
5.387719284e-05
5.233630873e-05
5.310293272e-05
5.723216236e-05
5.80032538e-05
5.956718815e-05
5.878047159e-05
6.089565431e-05
6.17193582e-05
6.342364941e-05
6.256328197e-05
6.460907753e-05
6.549485261e-05
6.729619781e-05
6.63924875e-05
6.745932478e-05
6.661618681e-05
6.573283463e-05
6.484641926e-05
5.645746569e-05
5.568287452e-05
5.413905092e-05
5.490809417e-05
5.774545934e-05
5.852005779e-05
6.008982382e-05
5.929939653e-05
6.120710896e-05
6.203063094e-05
6.373583165e-05
6.287582801e-05
6.476546696e-05
6.5653825e-05
6.655307516e-05
6.571700942e-05
6.484545884e-05
6.396964454e-05
5.696988592e-05
5.619420699e-05
5.464837523e-05
5.541867358e-05
5.805200999e-05
5.88281182e-05
6.04006309e-05
5.960903218e-05
6.136352022e-05
6.2187195e-05
6.389131886e-05
6.303167174e-05
6.482902245e-05
6.396893878e-05
6.310999743e-05
5.727591997e-05
5.650036474e-05
5.495277946e-05
5.572406371e-05
5.82085122e-05
5.89846677e-05
6.055803169e-05
5.97661965e-05
6.142679194e-05
6.224842218e-05
6.395209493e-05
6.309347373e-05
6.310875324e-05
6.226554251e-05
5.743212387e-05
5.665640492e-05
5.510741175e-05
5.587975465e-05
5.827221321e-05
5.904837235e-05
6.062126704e-05
5.982983566e-05
6.144176587e-05
6.226501864e-05
6.144297367e-05
5.749525008e-05
5.671920371e-05
5.516964302e-05
5.594227696e-05
5.82889661e-05
5.906537262e-05
6.063751789e-05
5.984594827e-05
6.063806723e-05
5.751209392e-05
5.673578198e-05
5.51863377e-05
5.595940456e-05
5.829073052e-05
5.906742808e-05
5.984796735e-05
5.751326898e-05
5.673734995e-05
5.518799298e-05
5.596098345e-05
1.637271271e-05
1.637050082e-05
1.7120763e-05
1.635640001e-05
1.711821824e-05
1.787472138e-05
1.631126361e-05
1.710425022e-05
1.787240762e-05
1.863246143e-05
1.619702198e-05
1.705912291e-05
1.785830864e-05
1.863029865e-05
1.939296635e-05
1.596633047e-05
1.694525963e-05
1.78130922e-05
1.861674536e-05
1.939144204e-05
2.015593418e-05
1.556958523e-05
1.671255814e-05
1.769724804e-05
1.856990639e-05
1.937760135e-05
2.015394057e-05
2.092014802e-05
1.412272741e-05
1.631374471e-05
1.746348971e-05
1.845298721e-05
1.933090243e-05
2.014054371e-05
2.091872011e-05
2.168455831e-05
1.30279459e-05
1.486007841e-05
1.706211879e-05
1.821613296e-05
1.921212061e-05
2.009308628e-05
2.090522685e-05
2.168287756e-05
2.244911229e-05
1.198538666e-05
1.375978718e-05
1.560402234e-05
1.781298852e-05
1.897477159e-05
1.997446452e-05
2.08574711e-05
2.166921695e-05
2.244708958e-05
2.321300781e-05
1.143644295e-05
1.271298243e-05
1.450199306e-05
1.634717228e-05
1.856809104e-05
1.973428698e-05
2.073765791e-05
2.162098463e-05
2.243323434e-05
2.321059947e-05
2.397573917e-05
1.036127924e-05
1.215024258e-05
1.345282999e-05
1.524036452e-05
1.709665594e-05
1.932648411e-05
2.049623617e-05
2.149942884e-05
2.238341403e-05
2.319601481e-05
2.397401295e-05
2.473660425e-05
8.649878509e-06
1.095660264e-05
1.289996635e-05
1.418765623e-05
1.598683957e-05
1.784689448e-05
2.008623051e-05
2.12575269e-05
2.226300057e-05
2.31466729e-05
2.39599558e-05
2.473436325e-05
2.549661804e-05
7.43041619e-06
9.30744136e-06
1.18203925e-05
1.362119019e-05
1.493213313e-05
1.673014958e-05
1.86027537e-05
2.084615699e-05
2.201977804e-05
2.302379835e-05
2.390978989e-05
2.472079359e-05
2.549532837e-05
2.625761408e-05
5.356843758e-06
7.473296137e-06
1.010087271e-05
1.242104372e-05
1.43760717e-05
1.567065192e-05
1.748299292e-05
1.935744149e-05
2.160765689e-05
2.27817527e-05
2.378737372e-05
2.467120066e-05
2.548127304e-05
2.625483103e-05
2.701892117e-05
2.032439397e-06
6.803759334e-06
8.879363122e-06
1.076496483e-05
1.329140559e-05
1.510265156e-05
1.642002826e-05
1.823208731e-05
2.011316428e-05
2.236693945e-05
2.354223943e-05
2.454780224e-05
2.543140363e-05
2.624172885e-05
2.701747326e-05
2.778110866e-05
1.857886787e-06
3.474678124e-06
8.25898951e-06
8.92251046e-06
1.156958115e-05
1.390326906e-05
1.586227154e-05
1.716512452e-05
1.89874354e-05
2.086527638e-05
2.31246886e-05
2.430152381e-05
2.530770871e-05
2.619170664e-05
2.700349069e-05
2.777850568e-05
2.854204467e-05
4.762709523e-06
-8.460450545e-07
4.923526831e-06
9.722850336e-06