/*--------------------------------*- C++ -*----------------------------------*\
  =========                 |
  \\      /  F ield         | OpenFOAM: The Open Source CFD Toolbox
   \\    /   O peration     | Website:  https://openfoam.org
    \\  /    A nd           | Version:  8
     \\/     M anipulation  |
\*---------------------------------------------------------------------------*/






FoamFile
{
    version     2.0;
    format      ascii;
    class       volSymmTensorField;
    location    "0";
    object      TauDDES;
}
// * * * * * * * * * * * * * * * * * * * * * * * * * * * * * * * * * * * * * //

dimensions      [0 2 -2 0 0 0 0];


internalField   nonuniform List<symmTensor>
10597
(
( 1.793250522e-05 6.086924259e-06 -2.340611331e-07 2.19909798e-05 -4.318500668e-09 9.152872371e-05 )
( 1.73141616e-05 6.926291007e-06 -2.269403865e-07 2.203607255e-05 -3.335242305e-09 9.0628404e-05 )
( 1.984773735e-05 4.094536507e-06 -3.022915962e-07 2.184843106e-05 3.604793619e-08 8.921579865e-05 )
( 1.913320921e-05 4.870929843e-06 -2.746464247e-07 2.174787005e-05 3.045692054e-08 8.879341476e-05 )
( 1.491747753e-05 9.930075976e-06 -1.763580713e-07 2.266494266e-05 2.294660817e-08 8.914864156e-05 )
( 1.491894545e-05 9.928292457e-06 -1.763507242e-07 2.266324736e-05 2.306108371e-08 8.913838246e-05 )
( 2.264755312e-05 1.484683821e-06 -3.616952995e-07 2.179786679e-05 5.91899223e-08 8.588687342e-05 )
( 1.697337939e-05 7.494124475e-06 -1.864155195e-07 2.198345101e-05 6.745156611e-08 8.818725473e-05 )
( 2.041262087e-05 3.735818837e-06 -3.079874205e-07 2.163968566e-05 6.613024084e-08 8.637881547e-05 )
( 1.36885501e-05 1.13245369e-05 -1.437124979e-07 2.29973848e-05 4.171558743e-08 8.730752597e-05 )
( 1.558165241e-05 9.180881534e-06 -1.718975113e-07 2.221880277e-05 5.15305203e-08 8.794302994e-05 )
( 1.380464528e-05 1.129561679e-05 -1.375038039e-07 2.295469858e-05 5.482934284e-08 8.682142652e-05 )
( 2.618783219e-05 -1.581313313e-06 -3.9276091e-07 2.20712609e-05 9.301528081e-08 8.055227227e-05 )
( 2.033166129e-05 3.819814992e-06 -3.057059246e-07 2.163880163e-05 6.657901253e-08 8.639780572e-05 )
( 1.695624269e-05 7.514144727e-06 -1.857940504e-07 2.198493166e-05 6.809889186e-08 8.81720116e-05 )
( 1.242586313e-05 1.247036016e-05 -7.227644971e-08 2.306727947e-05 8.345534752e-08 8.298187458e-05 )
( 1.397458254e-05 1.119902663e-05 -1.3018159e-07 2.281407797e-05 7.52170024e-08 8.589825302e-05 )
( 1.486049678e-05 1.015878115e-05 -1.479425293e-07 2.245079668e-05 8.802327045e-08 8.632401295e-05 )
( 1.254303697e-05 1.243346378e-05 -6.797088048e-08 2.307446266e-05 1.028709917e-07 8.248951781e-05 )
( 2.40754307e-05 2.791128679e-07 -3.788520075e-07 2.157557174e-05 8.232061077e-08 8.14485029e-05 )
( 2.897908962e-05 -3.820029633e-06 -4.036551502e-07 2.26680022e-05 1.098137119e-07 7.566285058e-05 )
( 2.041652442e-05 3.738362693e-06 -3.083537479e-07 2.16299195e-05 6.740336289e-08 8.627263014e-05 )
( 1.80975112e-05 6.216857855e-06 -2.34308402e-07 2.174212932e-05 8.446805566e-08 8.707016968e-05 )
( 1.48613899e-05 1.015767521e-05 -1.4783339e-07 2.245145879e-05 8.843763055e-08 8.631359378e-05 )
( 9.909594155e-06 1.289716602e-05 6.846238421e-08 2.152161505e-05 1.913167438e-07 6.771232438e-05 )
( 1.262088881e-05 1.245144722e-05 -5.740117714e-08 2.298539039e-05 1.231194346e-07 8.160110883e-05 )
( 1.381586662e-05 1.145189435e-05 -1.14229195e-07 2.280963599e-05 1.04386686e-07 8.460001118e-05 )
( 9.974341992e-06 1.292171237e-05 8.083883074e-08 2.153188689e-05 2.120290787e-07 6.732874317e-05 )
( 2.093777948e-05 3.345136747e-06 -3.311267278e-07 2.136189687e-05 9.265513512e-08 8.271559636e-05 )
( 2.677925841e-05 -2.052004675e-06 -3.821194525e-07 2.19278536e-05 8.519480588e-08 7.704882591e-05 )
( 3.164143709e-05 -5.789924671e-06 -4.094133885e-07 2.350991417e-05 1.054102441e-07 7.092762826e-05 )
( 1.949090802e-05 4.717830961e-06 -2.954751324e-07 2.147628766e-05 8.94686778e-08 8.5308282e-05 )
( 1.676609827e-05 7.800058484e-06 -1.861362051e-07 2.195233537e-05 1.027333383e-07 8.654576959e-05 )
( 1.382934533e-05 1.146010982e-05 -1.109533514e-07 2.27970595e-05 1.255210975e-07 8.401261584e-05 )
( 1.521090962e-05 9.931079148e-06 -1.418023601e-07 2.241910443e-05 1.290658105e-07 8.498987881e-05 )
( 8.449320376e-06 1.18615244e-05 1.101882532e-07 1.929825703e-05 2.191931117e-07 5.64041402e-05 )
( 1.00135876e-05 1.292900561e-05 9.342770113e-08 2.148197382e-05 2.352538218e-07 6.660103827e-05 )
( 1.254985909e-05 1.259775308e-05 -4.054286507e-08 2.297912215e-05 1.541917811e-07 8.032587357e-05 )
( 8.490766959e-06 1.18834123e-05 1.196607684e-07 1.930336111e-05 2.378919675e-07 5.608000356e-05 )
( 2.085560118e-05 3.427772981e-06 -3.296053706e-07 2.13616313e-05 9.334229389e-08 8.274178981e-05 )
( 2.945383494e-05 -4.18610216e-06 -3.649521716e-07 2.258278982e-05 8.011650721e-08 7.251738134e-05 )
( 2.096362005e-05 3.322516022e-06 -3.318265271e-07 2.135542854e-05 9.217642827e-08 8.26193791e-05 )
( 2.477943235e-05 -3.029382185e-07 -3.755771729e-07 2.135333671e-05 5.190281627e-08 7.798682054e-05 )
( 3.618198753e-05 -8.884147974e-06 -4.208225732e-07 2.557430162e-05 7.832134941e-08 6.250342994e-05 )
( 1.759986117e-05 6.841519735e-06 -2.315887855e-07 2.169621075e-05 1.250016481e-07 8.480582619e-05 )
( 1.521194008e-05 9.931194654e-06 -1.42051249e-07 2.241868606e-05 1.291630127e-07 8.497841191e-05 )
( 1.259580404e-05 1.256082669e-05 -3.895604905e-08 2.295998638e-05 1.843818609e-07 7.966523117e-05 )
( 1.398358108e-05 1.138656808e-05 -1.042004314e-07 2.278579268e-05 1.564601604e-07 8.329304546e-05 )
( 6.699166988e-06 9.871017937e-06 1.198317818e-07 1.579987475e-05 2.08950425e-07 4.298146087e-05 )
( 8.522885764e-06 1.188996521e-05 1.325987142e-07 1.925408287e-05 2.58110731e-07 5.548493573e-05 )
( 9.965968275e-06 1.292637717e-05 1.098493811e-07 2.135615614e-05 2.623851003e-07 6.531605322e-05 )
( 6.718915301e-06 9.87875319e-06 1.271156549e-07 1.578734918e-05 2.230502076e-07 4.273076775e-05 )
( 1.900838652e-05 5.343427802e-06 -2.847240808e-07 2.144981954e-05 1.142883264e-07 8.366913971e-05 )
( 2.729993139e-05 -2.498280764e-06 -3.604741323e-07 2.17790348e-05 3.481296318e-08 7.385697972e-05 )
( 3.193583689e-05 -6.006604963e-06 -3.404459505e-07 2.346582733e-05 7.929489243e-08 6.816080713e-05 )
( 2.037779996e-05 3.923497843e-06 -3.241908644e-07 2.114527888e-05 9.437739124e-08 8.179686847e-05 )
( 2.217163092e-05 2.177152737e-06 -3.458671927e-07 2.097116521e-05 6.180376033e-08 7.890750567e-05 )
( 3.41682935e-05 -7.532544714e-06 -3.208530188e-07 2.447246334e-05 7.904266397e-08 6.401637074e-05 )
( 3.958370507e-05 -1.098480334e-05 -4.273458103e-07 2.752589899e-05 2.659265697e-09 5.548293848e-05 )
( 1.687336771e-05 7.823549822e-06 -2.015701597e-07 2.172746463e-05 1.521764972e-07 8.389723371e-05 )
( 1.407081982e-05 1.137107574e-05 -9.943265411e-08 2.271283665e-05 1.849175959e-07 8.269456157e-05 )
( 1.567656363e-05 9.370566659e-06 -1.666915068e-07 2.194384433e-05 1.641107445e-07 8.34403545e-05 )
( 1.000720567e-05 1.293491732e-05 1.216423442e-07 2.131475412e-05 2.908133752e-07 6.468495849e-05 )
( 1.265695573e-05 1.255459392e-05 -2.800292442e-08 2.284725633e-05 2.119148661e-07 7.905179518e-05 )
( 4.704384537e-06 7.128524885e-06 9.901688713e-08 1.127917312e-05 1.609125917e-07 2.880663669e-05 )
( 6.744908205e-06 9.880373909e-06 1.357135346e-07 1.573476038e-05 2.373371899e-07 4.230190825e-05 )
( 8.480642464e-06 1.183978839e-05 1.465772499e-07 1.908046033e-05 2.801596963e-07 5.430103556e-05 )
( 4.705037099e-06 7.117375389e-06 1.034722317e-07 1.124557912e-05 1.698427496e-07 2.863681948e-05 )
( 1.78209666e-05 6.693680461e-06 -2.319160615e-07 2.143732127e-05 1.314842848e-07 8.330643323e-05 )
( 2.524974661e-05 -7.21012043e-07 -3.61531761e-07 2.111600952e-05 7.862564821e-09 7.472725702e-05 )
( 2.978566408e-05 -4.471879038e-06 -3.210145678e-07 2.249351019e-05 4.139568333e-08 6.961830513e-05 )
( 1.957879977e-05 4.775318303e-06 -2.886068273e-07 2.112971197e-05 1.109095678e-07 8.145417814e-05 )
( 2.211168612e-05 2.234683279e-06 -3.442200125e-07 2.096125536e-05 6.234905214e-08 7.890430425e-05 )
( 3.770289914e-05 -9.742907423e-06 -3.068145134e-07 2.635610508e-05 1.524956161e-08 5.679608512e-05 )
( 3.210637078e-05 -6.142574421e-06 -2.842755293e-07 2.339544881e-05 5.879612175e-08 6.548239617e-05 )
( 4.197654562e-05 -1.238436562e-05 -4.11209669e-07 2.89457239e-05 -1.968201957e-07 4.998039367e-05 )
( 1.68579918e-05 7.845698747e-06 -2.007097777e-07 2.172965287e-05 1.530030858e-07 8.38760534e-05 )
( 1.274525948e-05 1.252069615e-05 -2.093936047e-08 2.280167064e-05 2.532099188e-07 7.839369937e-05 )
( 1.411391531e-05 1.135269031e-05 -9.24464203e-08 2.25386375e-05 2.28889661e-07 8.142951265e-05 )
( 1.485320172e-05 1.045300905e-05 -1.059602113e-07 2.214271444e-05 2.411910316e-07 8.160660946e-05 )
( 8.512683053e-06 1.185071142e-05 1.593296588e-07 1.904534474e-05 3.04758629e-07 5.37070664e-05 )
( 1.004348906e-05 1.294473532e-05 1.352991177e-07 2.128444248e-05 3.221950351e-07 6.415316602e-05 )
( 2.72808802e-06 4.192530014e-06 6.119749685e-08 6.576593478e-06 9.599833817e-08 1.598933886e-05 )
( 4.72602369e-06 7.117741916e-06 1.085967227e-07 1.11991576e-05 1.784026864e-07 2.837567263e-05 )
( 6.709364243e-06 9.811556993e-06 1.462083929e-07 1.555079143e-05 2.532964345e-07 4.12975096e-05 )
( 2.719821168e-06 4.173508842e-06 6.38241815e-08 6.537753507e-06 1.006006158e-07 1.589965359e-05 )
( 1.724266622e-05 7.481933608e-06 -1.854071741e-07 2.142609446e-05 1.643803529e-07 8.215315756e-05 )
( 2.769242201e-05 -2.849819793e-06 -3.341927197e-07 2.163383942e-05 7.008179814e-09 7.073534653e-05 )
( 2.326437243e-05 1.096931101e-06 -3.189757933e-07 2.064347063e-05 2.556359036e-08 7.500229549e-05 )
( 2.004215094e-05 4.416515822e-06 -2.346539105e-07 2.080406193e-05 1.159426049e-07 7.863310748e-05 )
( 2.003832742e-05 4.416572665e-06 -2.368563372e-07 2.081675666e-05 1.15567822e-07 7.873843424e-05 )
( 1.825628533e-05 6.352098808e-06 -1.723920917e-07 2.109637171e-05 1.666342939e-07 8.01610513e-05 )
( 3.387311517e-05 -7.321159956e-06 -1.89197408e-07 2.402703285e-05 1.129197891e-08 5.938048344e-05 )
( 3.870959699e-05 -1.022910692e-05 -1.718006217e-07 2.675295036e-05 -1.90062849e-07 5.184899783e-05 )
( 3.002230005e-05 -4.677017387e-06 -2.848196061e-07 2.238268644e-05 3.298099216e-08 6.67159984e-05 )
( 4.288380296e-05 -1.291783065e-05 -4.122682924e-07 2.952638533e-05 -3.702853348e-07 4.762797107e-05 )
( 1.485327175e-05 1.04538085e-05 -1.056342569e-07 2.214370215e-05 2.418059353e-07 8.159547724e-05 )
( 1.00965517e-05 1.295786024e-05 1.523918911e-07 2.126344043e-05 3.618119138e-07 6.359672989e-05 )
( 1.276307739e-05 1.257251461e-05 4.145215726e-09 2.269752076e-05 3.033676705e-07 7.715172251e-05 )
( 1.388701639e-05 1.16759029e-05 -4.975648693e-08 2.25002932e-05 2.878567216e-07 7.984556578e-05 )
( 6.728299923e-06 9.81625908e-06 1.570182349e-07 1.551954847e-05 2.723501495e-07 4.077119229e-05 )
( 8.538882867e-06 1.186321606e-05 1.729229098e-07 1.903089833e-05 3.321775921e-07 5.322398647e-05 )
( 1.154014285e-06 1.783107109e-06 2.618603823e-08 2.778992211e-06 4.029524803e-08 6.531460713e-06 )
( 2.7353326e-06 4.175594768e-06 6.593430157e-08 6.508492788e-06 1.044812024e-07 1.577024705e-05 )
( 4.699205419e-06 7.054265097e-06 1.142614678e-07 1.104422518e-05 1.875127396e-07 2.761832184e-05 )
( 1.146138061e-06 1.768745847e-06 2.72911187e-08 2.753338322e-06 4.215156224e-08 6.492957709e-06 )
( 1.503248404e-05 1.033190074e-05 -4.102104612e-08 2.204983321e-05 2.998343405e-07 8.010603779e-05 )
( 1.503365638e-05 1.033056651e-05 -4.06733065e-08 2.204784505e-05 2.999768753e-07 8.009478188e-05 )
( 2.560678331e-05 -1.114743554e-06 -3.17951276e-07 2.091663919e-05 1.6669639e-09 7.145237032e-05 )
( 2.037901504e-05 4.101278591e-06 -1.503912017e-07 2.040297659e-05 1.495175752e-07 7.523997192e-05 )
( 1.9966119e-05 4.496066595e-06 -2.324317592e-07 2.081642924e-05 1.182177414e-07 7.873128197e-05 )
( 1.91541003e-05 5.389317266e-06 -1.417189139e-07 2.059837061e-05 1.704432293e-07 7.737890701e-05 )
( 1.693963168e-05 8.047663869e-06 -4.305970691e-08 2.12218456e-05 2.433091595e-07 7.946900587e-05 )
( 3.680602094e-05 -9.065202903e-06 -9.200359585e-08 2.547028271e-05 -1.963669973e-07 5.306972525e-05 )
( 2.791820589e-05 -3.104221378e-06 -2.827154617e-07 2.145772669e-05 1.223009427e-08 6.768020103e-05 )
( 2.794615284e-05 -3.225543651e-06 -1.886961485e-07 2.113499977e-05 5.489442234e-09 6.492072862e-05 )
( 2.986237087e-05 -4.727578016e-06 -1.13563253e-07 2.173788926e-05 -3.00802796e-08 6.149945693e-05 )
( 3.977814413e-05 -1.084041469e-05 -1.4100047e-07 2.738391049e-05 -3.402532798e-07 4.912760414e-05 )
( 4.406048174e-05 -1.365831667e-05 -3.56103584e-07 3.037287206e-05 -6.072531278e-07 4.433715367e-05 )
( 1.383558811e-05 1.170515407e-05 -1.984698095e-08 2.244455573e-05 3.230353514e-07 7.907341205e-05 )
( 8.570975297e-06 1.187080397e-05 1.896232646e-07 1.900789175e-05 3.662179324e-07 5.274612704e-05 )
( 1.008465188e-05 1.292452816e-05 1.791349149e-07 2.113567825e-05 4.060760261e-07 6.246680277e-05 )
( 1.132876969e-05 1.316100133e-05 1.473239877e-07 2.217148722e-05 4.179142081e-07 6.923954061e-05 )
( 4.705450465e-06 7.050613021e-06 1.215987737e-07 1.101647285e-05 2.004032353e-07 2.719890836e-05 )
( 6.740251592e-06 9.818882972e-06 1.680509882e-07 1.5501284e-05 2.933405199e-07 4.035939492e-05 )
( 3.312182173e-07 5.117237833e-07 7.61512009e-09 7.93459435e-07 1.146165118e-08 1.822336458e-06 )
( 1.155685027e-06 1.772908263e-06 2.787370335e-08 2.743899813e-06 4.325812952e-08 6.453625701e-06 )
( 2.718591304e-06 4.132532013e-06 6.872608083e-08 6.407985893e-06 1.090984227e-07 1.528867142e-05 )
( 3.261530992e-07 5.039651114e-07 7.745061481e-09 7.815824574e-07 1.175768727e-08 1.811464585e-06 )
( 1.38959349e-05 1.16685751e-05 2.568096313e-08 2.239482637e-05 3.645282902e-07 7.816495054e-05 )
( 1.56530532e-05 9.657547707e-06 1.473929778e-08 2.152090383e-05 2.999768469e-07 7.890197594e-05 )
( 1.399247867e-05 1.164209789e-05 5.945363313e-08 2.230945393e-05 3.861486846e-07 7.758287393e-05 )
( 2.040311665e-05 4.07675725e-06 -1.48842858e-07 2.039330138e-05 1.498463291e-07 7.514838217e-05 )
( 2.372682502e-05 6.385314464e-07 -2.522691034e-07 2.033459168e-05 3.400462845e-08 7.174214988e-05 )
( 2.030490941e-05 4.180652923e-06 -1.448405698e-07 2.040091567e-05 1.539136747e-07 7.523810928e-05 )
( 1.671786231e-05 8.342268302e-06 4.202912152e-08 2.106946704e-05 2.930640335e-07 7.778799772e-05 )
( 1.740233711e-05 7.459653716e-06 5.123825986e-08 2.069352377e-05 3.018120651e-07 7.624698628e-05 )
( 1.69240775e-05 8.066893315e-06 -4.101973161e-08 2.122215665e-05 2.44554343e-07 7.944897516e-05 )
( 3.293618647e-05 -6.796966773e-06 -4.157314937e-09 2.29116722e-05 -2.004392314e-07 5.539771519e-05 )
( 3.794614895e-05 -9.717450666e-06 -3.732785814e-08 2.611877972e-05 -3.324189493e-07 5.025631617e-05 )
( 2.58646287e-05 -1.411799303e-06 -2.414743676e-07 2.063555075e-05 1.530419169e-08 6.8403162e-05 )
( 2.592011515e-05 -1.562626721e-06 -1.129133267e-07 2.019051863e-05 1.839435804e-08 6.564790237e-05 )
( 2.780860086e-05 -3.244548452e-06 -5.222378263e-08 2.062218482e-05 -3.574972141e-08 6.242217205e-05 )
( 4.118538345e-05 -1.170203359e-05 -1.514371775e-07 2.839052104e-05 -5.833238674e-07 4.512007945e-05 )
( 4.46564336e-05 -1.416487248e-05 -2.606340672e-07 3.104554344e-05 -7.035419003e-07 4.227631143e-05 )
( 1.132079524e-05 1.313660232e-05 1.825091545e-07 2.206422323e-05 4.585751299e-07 6.832282088e-05 )
( 6.748772648e-06 9.810130905e-06 1.82367188e-07 1.546596468e-05 3.201737968e-07 3.998549437e-05 )
( 8.541027455e-06 1.180570416e-05 2.116117486e-07 1.885496567e-05 4.017188076e-07 5.177936691e-05 )
( 9.970138308e-06 1.285517465e-05 2.14378332e-07 2.089739792e-05 4.470212218e-07 6.084017514e-05 )
( 2.716654535e-06 4.124347925e-06 7.290169179e-08 6.386747373e-06 1.164061061e-07 1.501361476e-05 )
( 4.703310879e-06 7.039573575e-06 1.293469722e-07 1.098734811e-05 2.145757918e-07 2.688589666e-05 )
( 4.303146852e-07 6.594725619e-07 6.144624809e-09 1.014554982e-06 9.170340931e-09 2.339506864e-06 )
( 1.228152769e-06 1.875130465e-06 2.755323436e-08 2.885955382e-06 4.275758414e-08 6.651607691e-06 )
( 1.133263413e-05 1.312634868e-05 2.230193274e-07 2.193134969e-05 4.940233111e-07 6.750633474e-05 )
( 1.49753705e-05 1.059062924e-05 1.140439352e-07 2.167735329e-05 3.699340994e-07 7.707778423e-05 )
( 1.414922554e-05 1.155966584e-05 1.118806949e-07 2.210750063e-05 4.05154907e-07 7.65742152e-05 )
( 1.141311441e-05 1.311935375e-05 2.598128503e-07 2.186086931e-05 5.258911528e-07 6.694121839e-05 )
( 1.981016794e-05 4.721795449e-06 -7.174064365e-08 2.011812103e-05 2.066996103e-07 7.410378748e-05 )
( 2.133414819e-05 3.099653895e-06 -9.975992299e-08 1.988090298e-05 1.567600663e-07 7.182881382e-05 )
( 1.869250627e-05 5.998928827e-06 -1.859005039e-08 2.033860255e-05 2.492133433e-07 7.520290092e-05 )
( 1.671041355e-05 8.354143574e-06 4.350190963e-08 2.106766442e-05 2.938132582e-07 7.775583072e-05 )
( 1.681989852e-05 8.371323929e-06 1.329751882e-07 2.054014476e-05 3.49499885e-07 7.476364408e-05 )
( 1.497628909e-05 1.058939233e-05 1.144997697e-07 2.167694402e-05 3.702344316e-07 7.706757606e-05 )
( 3.524265412e-05 -8.143890227e-06 3.37719932e-08 2.414543451e-05 -4.12842752e-07 5.02234725e-05 )
( 2.900227992e-05 -4.418024673e-06 7.812549541e-08 2.039745414e-05 -1.239804277e-07 5.737355968e-05 )
( 2.748916813e-05 -3.175680149e-06 7.262931234e-08 1.995151615e-05 -6.433055688e-08 6.01895008e-05 )
( 3.947327423e-05 -1.064631215e-05 -3.780082025e-08 2.720891825e-05 -5.335906508e-07 4.592167897e-05 )
( 2.392453825e-05 4.021590314e-07 -1.431281191e-07 1.990446799e-05 6.432018296e-08 6.876976113e-05 )
( 2.397997741e-05 2.27690947e-07 1.066365751e-08 1.935999717e-05 6.839189126e-08 6.603477232e-05 )
( 2.580829459e-05 -1.630511633e-06 4.418620847e-08 1.959029578e-05 -6.858044799e-09 6.313210179e-05 )
( 4.18794516e-05 -1.233830972e-05 -2.133923545e-07 2.921469422e-05 -6.509397394e-07 4.251742212e-05 )
( 9.959346244e-06 1.281705408e-05 2.480877299e-07 2.07602061e-05 4.850072628e-07 5.994382082e-05 )
( 4.694329618e-06 7.016601103e-06 1.39875354e-07 1.094195432e-05 2.331060358e-07 2.663610394e-05 )
( 6.708095952e-06 9.729715202e-06 1.992899143e-07 1.530799454e-05 3.465738132e-07 3.926159479e-05 )
( 8.422040992e-06 1.166194397e-05 2.390901557e-07 1.854261245e-05 4.334474681e-07 5.029773456e-05 )
( 1.143880922e-06 1.745391955e-06 3.095019352e-08 2.685403842e-06 4.838430101e-08 6.09320432e-06 )
( 2.70749274e-06 4.10686971e-06 7.752353781e-08 6.354436664e-06 1.24480124e-07 1.48175468e-05 )
( 4.601710657e-07 7.028390883e-07 5.794078106e-09 1.077420052e-06 8.61964633e-09 2.434007229e-06 )
( 9.949713785e-06 1.278049876e-05 2.792851319e-07 2.062043131e-05 5.152683684e-07 5.916408554e-05 )
( 1.398503628e-05 1.178838465e-05 1.778985563e-07 2.202996984e-05 4.379043617e-07 7.517758058e-05 )
( 1.280808556e-05 1.267916286e-05 2.159021051e-07 2.220967508e-05 4.941987299e-07 7.219832332e-05 )
( 1.001496457e-05 1.278324453e-05 3.130585924e-07 2.053757453e-05 5.473031592e-07 5.867735308e-05 )
( 1.913665255e-05 5.526037967e-06 1.151341333e-08 1.993442856e-05 2.674889856e-07 7.314200775e-05 )
( 2.127846165e-05 3.158236268e-06 -9.494954867e-08 1.986821553e-05 1.605741886e-07 7.180928515e-05 )
( 1.764594163e-05 7.321235444e-06 9.649969002e-08 2.0204463e-05 3.230201173e-07 7.431201811e-05 )
( 1.530100963e-05 1.037421316e-05 1.729055583e-07 2.148521526e-05 3.9034677e-07 7.577143697e-05 )
( 1.529984002e-05 1.037443781e-05 1.72680501e-07 2.148678686e-05 3.903064112e-07 7.578223449e-05 )
( 1.680698733e-05 8.391951269e-06 1.34707733e-07 2.053916432e-05 3.507729218e-07 7.47337981e-05 )
( 1.571540633e-05 9.861774743e-06 1.88541037e-07 2.086867789e-05 3.889770142e-07 7.431177801e-05 )
( 1.400051588e-05 1.179573883e-05 2.078267443e-07 2.196253081e-05 4.530233753e-07 7.456248568e-05 )
( 3.143767753e-05 -6.113067229e-06 -2.486070549e-08 2.150328146e-05 -3.220027054e-07 5.245560169e-05 )
( 3.608735642e-05 -8.66595019e-06 1.932395222e-08 2.477402995e-05 -4.659954129e-07 4.792847903e-05 )
( 2.703595601e-05 -3.044160167e-06 1.55524333e-07 1.918195812e-05 -2.644277508e-08 5.824978871e-05 )
( 2.554982711e-05 -1.597465939e-06 1.684899757e-07 1.885715574e-05 1.250915371e-08 6.089579256e-05 )
( 3.877267227e-05 -1.048260674e-05 -9.71029479e-08 2.706339365e-05 -5.480792993e-07 4.35255788e-05 )
( 2.210203456e-05 2.261149348e-06 7.571866689e-09 1.931154657e-05 1.532678198e-07 6.860397116e-05 )
( 1.944105315e-05 5.307128959e-06 9.130408074e-08 1.9562749e-05 2.926348088e-07 7.089049905e-05 )
( 1.94423701e-05 5.301130841e-06 8.706011556e-08 1.95815901e-05 2.911026229e-07 7.098408241e-05 )
( 1.961176349e-05 5.200044143e-06 2.460562598e-07 1.882536162e-05 3.321064241e-07 6.783408026e-05 )
( 2.227830737e-05 2.058067366e-06 1.660227724e-07 1.864751903e-05 1.526507134e-07 6.594545994e-05 )
( 1.960478949e-05 5.20726735e-06 2.417889391e-07 1.884415906e-05 3.31624193e-07 6.79049117e-05 )
( 2.393754767e-05 1.361729005e-07 1.643088439e-07 1.867235005e-05 6.404707165e-08 6.353849312e-05 )
( 8.391953088e-06 1.159661952e-05 2.64290918e-07 1.837944365e-05 4.626207897e-07 4.947022899e-05 )
( 2.692977432e-06 4.082281976e-06 8.402424356e-08 6.314058737e-06 1.35222578e-07 1.468609116e-05 )
( 4.655480552e-06 6.944660527e-06 1.513790693e-07 1.081198025e-05 2.508388661e-07 2.618473263e-05 )
( 6.59106172e-06 9.555422366e-06 2.170855709e-07 1.49788857e-05 3.677975542e-07 3.803668005e-05 )
( 4.248426819e-07 6.486366715e-07 7.054388629e-09 9.93951744e-07 1.064778132e-08 2.216153689e-06 )
( 1.136819947e-06 1.73297849e-06 3.303116358e-08 2.663829491e-06 5.175530049e-08 6.006125659e-06 )
( 8.363974302e-06 1.153279845e-05 2.883923287e-07 1.82176118e-05 4.881511586e-07 4.877386164e-05 )
( 1.142666042e-05 1.315349436e-05 3.461288145e-07 2.157012932e-05 5.784441441e-07 6.469072105e-05 )
( 1.006934781e-05 1.277855608e-05 3.450431905e-07 2.040912295e-05 5.724355105e-07 5.790935393e-05 )
( 8.40829216e-06 1.152605e-05 3.135646125e-07 1.811714719e-05 5.139189625e-07 4.838263339e-05 )
( 1.848254033e-05 6.29619899e-06 9.132264722e-08 1.984522351e-05 3.215319566e-07 7.255798846e-05 )
( 1.711549339e-05 8.081497981e-06 1.615917995e-07 2.014692836e-05 3.703121934e-07 7.307747728e-05 )
( 1.424754919e-05 1.171112672e-05 2.638216756e-07 2.171022061e-05 4.794172241e-07 7.321884186e-05 )
( 1.415550105e-05 1.172501106e-05 2.430905397e-07 2.185334233e-05 4.689464959e-07 7.383456978e-05 )
( 1.495151719e-05 1.086093835e-05 2.663366558e-07 2.095300079e-05 4.672193654e-07 7.221226406e-05 )
( 1.495152719e-05 1.086153407e-05 2.666173486e-07 2.095288983e-05 4.677164895e-07 7.220097177e-05 )
( 1.428188989e-05 1.168601375e-05 2.856299091e-07 2.142922494e-05 4.943669865e-07 7.192031626e-05 )
( 1.148461615e-05 1.314379733e-05 3.744148103e-07 2.146489351e-05 5.944647228e-07 6.400851998e-05 )
( 3.244637992e-05 -6.751727597e-06 -8.063671686e-08 2.217646761e-05 -3.876674555e-07 5.016880095e-05 )
( 2.648328336e-05 -2.86397426e-06 2.082118016e-07 1.83655502e-05 1.997067933e-08 5.648684964e-05 )
( 3.708745862e-05 -9.491743185e-06 -8.710487975e-08 2.581414083e-05 -4.874284514e-07 4.438456017e-05 )
( 2.520832641e-05 -1.520949468e-06 2.697942421e-07 1.802927181e-05 9.108404697e-08 5.885465362e-05 )
( 2.379037323e-05 1.23911633e-07 2.933874157e-07 1.785906898e-05 1.281025135e-07 6.12198055e-05 )
( 1.937845809e-05 5.379162303e-06 9.346990026e-08 1.95763223e-05 2.958648508e-07 7.095401816e-05 )
( 1.864023579e-05 6.321514775e-06 2.253565299e-07 1.918164526e-05 3.706021801e-07 6.944112101e-05 )
( 1.904544115e-05 5.938570666e-06 3.750025996e-07 1.838855678e-05 4.020017741e-07 6.671324081e-05 )
( 1.953742867e-05 5.288571629e-06 2.487426798e-07 1.883421464e-05 3.372510093e-07 6.787654274e-05 )
( 2.021600812e-05 4.55627287e-06 3.742969454e-07 1.80196912e-05 3.25713188e-07 6.526146899e-05 )
( 2.227416917e-05 2.008489901e-06 3.20874932e-07 1.784242886e-05 1.870413371e-07 6.342685811e-05 )
( 6.545208635e-06 9.470816622e-06 2.355168647e-07 1.480778883e-05 3.898662158e-07 3.734041456e-05 )
( 1.126803795e-06 1.717664986e-06 3.595558695e-08 2.640502998e-06 5.639654077e-08 5.956839232e-06 )
( 2.667265335e-06 4.036539849e-06 9.063128914e-08 6.234953617e-06 1.45412173e-07 1.446775423e-05 )
( 4.557718967e-06 6.788052815e-06 1.619264367e-07 1.053440974e-05 2.63875819e-07 2.530440543e-05 )
( 3.242350033e-07 4.938656275e-07 9.514393717e-09 7.548425742e-07 1.451446696e-08 1.665576292e-06 )
( 6.499973551e-06 9.382075405e-06 2.502109169e-07 1.46246839e-05 4.064571044e-07 3.677499262e-05 )
( 1.003220041e-05 1.27507883e-05 3.771050388e-07 2.020181819e-05 5.897473443e-07 5.663431875e-05 )
( 8.46162402e-06 1.152552886e-05 3.376324003e-07 1.799991696e-05 5.344622878e-07 4.779083247e-05 )
( 6.525473509e-06 9.360775948e-06 2.685050049e-07 1.450813215e-05 4.260634512e-07 3.649963037e-05 )
( 1.680897185e-05 8.6919963e-06 2.993925818e-07 1.980608977e-05 4.556255249e-07 7.05277198e-05 )
( 1.511732899e-05 1.074700322e-05 3.092595193e-07 2.066821253e-05 5.001195973e-07 7.068388368e-05 )
( 1.511866776e-05 1.074552802e-05 3.095470902e-07 2.066505112e-05 5.001448358e-07 7.06732535e-05 )
( 1.295235234e-05 1.270843404e-05 3.486057381e-07 2.170753396e-05 5.625186645e-07 6.880761794e-05 )
( 1.285203871e-05 1.274251099e-05 3.29633167e-07 2.184801633e-05 5.506253729e-07 6.95063718e-05 )
( 1.405331568e-05 1.196620087e-05 3.241021318e-07 2.127002153e-05 5.300306611e-07 7.024015213e-05 )
( 1.400708334e-05 1.198532755e-05 3.415422611e-07 2.112283255e-05 5.429051839e-07 6.94249029e-05 )
( 1.296566916e-05 1.273871931e-05 3.707347673e-07 2.148908061e-05 5.787148325e-07 6.752055924e-05 )
( 1.009172047e-05 1.275635259e-05 4.002984895e-07 2.010321623e-05 6.014467999e-07 5.598055577e-05 )
( 2.86293307e-05 -4.760967386e-06 9.511511578e-09 1.947208875e-05 -2.138831405e-07 5.222372783e-05 )
( 3.372905121e-05 -7.644151083e-06 -1.472263591e-07 2.332534132e-05 -3.752571729e-07 4.644513683e-05 )
( 2.331934957e-05 2.631241216e-07 5.370922622e-07 1.598286326e-05 2.328309847e-07 5.729690383e-05 )
( 2.432398469e-05 -1.185748374e-06 4.487444016e-07 1.626946323e-05 1.18389849e-07 5.554679956e-05 )
( 2.359166319e-05 1.520896262e-07 4.243956937e-07 1.695577521e-05 2.063323876e-07 5.910934851e-05 )
( 2.227442747e-05 1.951969125e-06 4.642569706e-07 1.693215381e-05 2.565731734e-07 6.107607624e-05 )
( 1.766099012e-05 7.565698525e-06 2.547428437e-07 1.954621803e-05 4.20426062e-07 7.019020995e-05 )
( 1.793458796e-05 7.262251074e-06 3.237630608e-07 1.908752893e-05 4.393543804e-07 6.846578617e-05 )
( 1.821322076e-05 7.019778877e-06 3.998385125e-07 1.858477299e-05 4.516110153e-07 6.719509111e-05 )
( 1.847341082e-05 6.789195595e-06 4.945923138e-07 1.803528539e-05 4.619424487e-07 6.559697067e-05 )
( 2.016996405e-05 4.616572369e-06 3.8046349e-07 1.800026621e-05 3.304309644e-07 6.522541662e-05 )
( 1.886170503e-05 6.546320037e-06 5.76964112e-07 1.739503386e-05 4.645274316e-07 6.384136941e-05 )
( 2.080115701e-05 3.945356184e-06 4.987026045e-07 1.706363219e-05 3.303462108e-07 6.264578406e-05 )
( 1.887120015e-05 6.541477887e-06 5.806834906e-07 1.736757076e-05 4.65215777e-07 6.377261161e-05 )
( 4.506427103e-06 6.701754955e-06 1.727221104e-07 1.038166374e-05 2.776617976e-07 2.479284012e-05 )
( 3.198497893e-07 4.874853516e-07 1.039140329e-08 7.456088156e-07 1.587533305e-08 1.652295623e-06 )
( 1.116222847e-06 1.699559789e-06 3.875472032e-08 2.610337106e-06 6.075171655e-08 5.888648047e-06 )
( 2.601561164e-06 3.929507784e-06 9.567552439e-08 6.052815934e-06 1.519761383e-07 1.394416813e-05 )
( 4.455779617e-06 6.607755495e-06 1.815298276e-07 1.020562831e-05 2.8817729e-07 2.439519267e-05 )
( 8.438290934e-06 1.146673458e-05 3.584661101e-07 1.777180478e-05 5.446714795e-07 4.665927554e-05 )
( 6.582449259e-06 9.372037312e-06 2.851339502e-07 1.441688346e-05 4.408540235e-07 3.610251952e-05 )
( 4.468431143e-06 6.57940609e-06 1.934170228e-07 1.009195876e-05 3.011459171e-07 2.4234394e-05 )
( 1.679604975e-05 8.709622307e-06 3.011485319e-07 1.980398156e-05 4.568697705e-07 7.050365821e-05 )
( 1.569510641e-05 1.015135786e-05 3.473134313e-07 2.002417204e-05 5.003047931e-07 6.95888084e-05 )
( 1.407840136e-05 1.194239394e-05 3.643781668e-07 2.09308273e-05 5.583596021e-07 6.849673809e-05 )
( 1.41937735e-05 1.191553565e-05 3.823632824e-07 2.074699296e-05 5.664614946e-07 6.792038039e-05 )
( 1.019129741e-05 1.274600072e-05 4.2530516e-07 1.989797784e-05 6.10754455e-07 5.477336163e-05 )
( 1.013352266e-05 1.275172235e-05 4.151826261e-07 2.00053928e-05 6.068918879e-07 5.538780533e-05 )
( 1.281049026e-05 1.283928759e-05 3.966860618e-07 2.129090353e-05 5.964893717e-07 6.58718418e-05 )
( 1.28133961e-05 1.279341632e-05 4.092514985e-07 2.107579712e-05 6.05456421e-07 6.492608372e-05 )
( 1.016928218e-05 1.267357584e-05 4.295665974e-07 1.964647345e-05 6.107275681e-07 5.361154763e-05 )
( 8.4899184e-06 1.147844341e-05 3.748131121e-07 1.769444498e-05 5.5123121e-07 4.60590345e-05 )
( 3.012787238e-05 -5.895047252e-06 -1.363786737e-07 2.064796718e-05 -2.917381892e-07 4.853921928e-05 )
( 2.759406561e-05 -4.363089374e-06 6.772642536e-08 1.858625546e-05 -2.124503737e-07 5.129746569e-05 )
( 2.521956594e-05 -2.372599965e-06 3.501398567e-07 1.670367419e-05 -2.858268822e-08 5.380232324e-05 )
( 2.211455649e-05 2.029855523e-06 6.905230521e-07 1.476269335e-05 3.188920061e-07 5.718531975e-05 )
( 2.221388786e-05 1.956699634e-06 6.020489991e-07 1.589987733e-05 3.066126339e-07 5.89713236e-05 )
( 2.301655331e-05 4.310927579e-07 6.290068768e-07 1.491640069e-05 2.101149761e-07 5.580780271e-05 )
( 1.922564843e-05 6.399122412e-06 7.115309018e-07 1.625258483e-05 4.844322348e-07 6.126806693e-05 )
( 1.921626426e-05 6.404232408e-06 7.083059472e-07 1.628458631e-05 4.841907639e-07 6.13305383e-05 )
( 2.09401569e-05 3.869240118e-06 6.431906741e-07 1.599551069e-05 3.713996648e-07 6.032069723e-05 )
( 1.662624709e-05 8.997779332e-06 3.903329571e-07 1.948447243e-05 5.113345196e-07 6.88225482e-05 )
( 1.708803757e-05 8.371740478e-06 4.296632881e-07 1.897531183e-05 5.18648676e-07 6.752259651e-05 )
( 1.729410906e-05 8.39972563e-06 5.489849286e-07 1.825430263e-05 5.361698641e-07 6.584233779e-05 )