/*--------------------------------*- C++ -*----------------------------------*\
  =========                 |
  \\      /  F ield         | OpenFOAM: The Open Source CFD Toolbox
   \\    /   O peration     | Website:  https://openfoam.org
    \\  /    A nd           | Version:  8
     \\/     M anipulation  |
\*---------------------------------------------------------------------------*/






FoamFile
{
    version     2.0;
    format      ascii;
    class       volSymmTensorField;
    location    "0";
    object      TauDDES;
}
// * * * * * * * * * * * * * * * * * * * * * * * * * * * * * * * * * * * * * //

dimensions      [0 2 -2 0 0 0 0];


internalField   nonuniform List<symmTensor>
13630
(
( 5.041104305e-05 -1.524315849e-05 1.985370943e-07 2.036514343e-05 1.064939852e-07 2.504128315e-05 )
( 4.503996024e-05 -1.321571472e-05 3.036986413e-07 1.841435733e-05 1.648298849e-07 2.185994344e-05 )
( 5.149993012e-05 -1.553587026e-05 2.345023802e-07 2.05468823e-05 2.065054758e-07 2.54155384e-05 )
( 4.079649443e-05 -1.163928027e-05 4.436307108e-07 1.705951581e-05 1.297117649e-07 1.961903763e-05 )
( 4.551671736e-05 -1.337858248e-05 3.182232717e-07 1.851342495e-05 2.46876624e-07 2.199023584e-05 )
( 5.227390648e-05 -1.575092756e-05 2.472101244e-07 2.05811557e-05 2.800039454e-07 2.557161133e-05 )
( 3.708114673e-05 -1.040979805e-05 5.03692263e-07 1.598944618e-05 8.829666598e-08 1.792350668e-05 )
( 4.108740904e-05 -1.177382455e-05 4.46027741e-07 1.714391692e-05 2.064287514e-07 1.968023935e-05 )
( 4.607393566e-05 -1.355497352e-05 3.691294523e-07 1.8591556e-05 3.012604282e-07 2.215551103e-05 )
( 5.301483543e-05 -1.600005817e-05 1.686699136e-07 2.06342429e-05 3.441842011e-07 2.573193706e-05 )
( 3.394025407e-05 -9.472469173e-06 3.77236006e-07 1.514113228e-05 6.490471094e-08 1.653041363e-05 )
( 3.727397052e-05 -1.049500224e-05 5.003342949e-07 1.602564407e-05 1.331498538e-07 1.794901618e-05 )
( 4.140369492e-05 -1.191677529e-05 4.703631475e-07 1.722401612e-05 2.706329951e-07 1.977473949e-05 )
( 4.671312126e-05 -1.375233933e-05 4.060912602e-07 1.865674858e-05 3.325436637e-07 2.233547093e-05 )
( 5.366355617e-05 -1.631911437e-05 2.833839474e-08 2.072123607e-05 4.139162968e-07 2.591796874e-05 )
( 3.1359079e-05 -8.729396541e-06 1.569030132e-07 1.439077641e-05 3.121459358e-08 1.539901496e-05 )
( 3.403758456e-05 -9.504678019e-06 3.80731592e-07 1.512737344e-05 8.386194139e-08 1.655176311e-05 )
( 3.746350922e-05 -1.059314491e-05 4.973106797e-07 1.607129889e-05 1.85169057e-07 1.799166421e-05 )
( 4.178618838e-05 -1.206949128e-05 5.143278941e-07 1.729083669e-05 3.111906608e-07 1.990592864e-05 )
( 4.733753303e-05 -1.398753193e-05 3.805688209e-07 1.873027577e-05 3.590230619e-07 2.251855949e-05 )
( 5.420640082e-05 -1.66670543e-05 -7.054242701e-08 2.0848247e-05 4.879477729e-07 2.61309342e-05 )
( 3.138594184e-05 -8.719455764e-06 1.675666255e-07 1.434224487e-05 4.872152459e-08 1.54133013e-05 )
( 2.898828461e-05 -8.074537618e-06 -8.815994335e-08 1.360973692e-05 -7.211681918e-09 1.44245696e-05 )
( 3.413836748e-05 -9.553210475e-06 3.762471863e-07 1.512777362e-05 1.094487487e-07 1.658611473e-05 )
( 3.767638191e-05 -1.070283361e-05 5.047693321e-07 1.611724474e-05 2.328604722e-07 1.806091677e-05 )
( 4.222521602e-05 -1.223994786e-05 5.4886425e-07 1.735250953e-05 3.342038895e-07 2.006148134e-05 )
( 4.78962429e-05 -1.426734343e-05 2.921054545e-07 1.882731158e-05 3.920497988e-07 2.272011625e-05 )
( 5.473709825e-05 -1.700238499e-05 -9.762933217e-08 2.099775156e-05 5.362820161e-07 2.638351543e-05 )
( 2.900349864e-05 -8.038948181e-06 -8.243542737e-08 1.354260712e-05 1.744770373e-08 1.441818677e-05 )
( 3.140085028e-05 -8.722399798e-06 1.721634675e-07 1.430865814e-05 6.468422242e-08 1.54395475e-05 )
( 2.660260543e-05 -7.397632089e-06 -3.098329842e-07 1.273659655e-05 -3.604960597e-08 1.34188449e-05 )
( 3.425354225e-05 -9.61702608e-06 3.711051022e-07 1.513694315e-05 1.418417241e-07 1.663340481e-05 )
( 3.79257981e-05 -1.082486415e-05 5.204796025e-07 1.616062582e-05 2.703315545e-07 1.816323675e-05 )
( 4.268005432e-05 -1.244010491e-05 5.439183042e-07 1.74198758e-05 3.515244771e-07 2.023320849e-05 )
( 4.838954919e-05 -1.455892198e-05 1.872953277e-07 1.895000787e-05 4.228168962e-07 2.295383274e-05 )
( 5.519792467e-05 -1.7264696e-05 -7.188140216e-08 2.112496441e-05 5.803233876e-07 2.661099279e-05 )
( 2.664531894e-05 -7.358004041e-06 -3.187725497e-07 1.266478012e-05 -6.785521478e-09 1.338966467e-05 )
( 2.901088556e-05 -8.011732461e-06 -7.610583452e-08 1.348974183e-05 3.811480198e-08 1.4420566e-05 )
( 3.143399226e-05 -8.739799341e-06 1.722749801e-07 1.428721953e-05 8.220825976e-08 1.547402462e-05 )
( 2.417492396e-05 -6.611242952e-06 -4.478514484e-07 1.174796489e-05 -5.223803612e-08 1.236359094e-05 )
( 3.438529893e-05 -9.694695109e-06 3.685170213e-07 1.515006443e-05 1.786609829e-07 1.66997761e-05 )
( 3.821785867e-05 -1.096410961e-05 5.331592092e-07 1.620559851e-05 2.983726972e-07 1.829537359e-05 )
( 4.312924284e-05 -1.266719937e-05 4.944203624e-07 1.750558113e-05 3.656330989e-07 2.042554115e-05 )
( 4.885379167e-05 -1.48477302e-05 1.241856467e-07 1.90880819e-05 4.515453043e-07 2.320645763e-05 )
( 5.567027983e-05 -1.751331001e-05 -6.688626542e-08 2.122682417e-05 6.995348372e-07 2.69155571e-05 )
( 2.421570571e-05 -6.577770364e-06 -4.682566441e-07 1.167864957e-05 -2.294117607e-08 1.232990871e-05 )
( 2.668720845e-05 -7.322601959e-06 -3.230410925e-07 1.260380577e-05 1.971771901e-08 1.336869718e-05 )
( 2.902214146e-05 -7.99467125e-06 -7.204219798e-08 1.345019245e-05 5.617818033e-08 1.442994289e-05 )
( 3.147489406e-05 -8.771190551e-06 1.70865178e-07 1.427367624e-05 1.043218845e-07 1.551645983e-05 )
( 2.175406371e-05 -5.714669896e-06 -4.856560167e-07 1.064543358e-05 -5.854481699e-08 1.143140526e-05 )
( 3.455054321e-05 -9.785870134e-06 3.669918556e-07 1.516589964e-05 2.159607533e-07 1.679211346e-05 )
( 3.854291572e-05 -1.112644622e-05 5.291163347e-07 1.626195626e-05 3.187035702e-07 1.844961844e-05 )
( 4.354639168e-05 -1.291160333e-05 4.317194566e-07 1.761414751e-05 3.73447449e-07 2.064483124e-05 )
( 4.932417505e-05 -1.51209988e-05 9.440510951e-08 1.920704563e-05 4.981737334e-07 2.347090049e-05 )
( 5.614628026e-05 -1.770686322e-05 -1.470332194e-07 2.125221908e-05 8.032723144e-07 2.727379979e-05 )
( 2.179280636e-05 -5.687756584e-06 -5.060424542e-07 1.058413e-05 -3.405721571e-08 1.139759206e-05 )
( 2.427696745e-05 -6.547424618e-06 -4.854881013e-07 1.161723048e-05 4.902421136e-09 1.230495945e-05 )
( 2.67157593e-05 -7.291126622e-06 -3.249664076e-07 1.255356528e-05 4.386885166e-08 1.335595061e-05 )
( 2.904081703e-05 -7.988963262e-06 -7.056038243e-08 1.342145424e-05 7.347595954e-08 1.444443751e-05 )
( 3.153670332e-05 -8.815970432e-06 1.685226323e-07 1.426430845e-05 1.319492497e-07 1.557000178e-05 )
( 1.945286385e-05 -4.76508194e-06 -4.810714245e-07 9.464522009e-06 -4.865016834e-08 1.069034624e-05 )
( 3.475396079e-05 -9.893847164e-06 3.634318659e-07 1.519011676e-05 2.491829889e-07 1.691163743e-05 )
( 3.885781553e-05 -1.131277804e-05 5.108459504e-07 1.633972715e-05 3.279874647e-07 1.86247089e-05 )
( 4.396744043e-05 -1.315749068e-05 3.767527517e-07 1.772324322e-05 3.80496914e-07 2.088832662e-05 )
( 4.98382251e-05 -1.534613875e-05 4.875835558e-08 1.925052129e-05 5.668098311e-07 2.375492113e-05 )
( 6.097449659e-05 -1.955723019e-05 -2.881912735e-07 2.320953172e-05 9.886060752e-07 3.059481605e-05 )
( 5.67143943e-05 -1.786830035e-05 -2.688164216e-07 2.125758328e-05 8.689935385e-07 2.766455509e-05 )
( 1.950764999e-05 -4.744290436e-06 -4.953824373e-07 9.416892681e-06 -3.464838727e-08 1.065211472e-05 )
( 2.18569694e-05 -5.663997399e-06 -5.290979175e-07 1.052776588e-05 -9.584185001e-09 1.137124673e-05 )
( 2.431832218e-05 -6.517813745e-06 -4.991034643e-07 1.156364033e-05 3.110638147e-08 1.228861584e-05 )
( 2.673891686e-05 -7.264773558e-06 -3.263099586e-07 1.251349022e-05 6.587223567e-08 1.335046272e-05 )
( 2.904711619e-05 -7.994467524e-06 -7.037179728e-08 1.339979826e-05 9.18904135e-08 1.446342685e-05 )
( 3.163611473e-05 -8.87483111e-06 1.643197152e-07 1.425976825e-05 1.630522775e-07 1.564003833e-05 )
( 1.73863009e-05 -3.812446266e-06 -4.615070281e-07 8.24433846e-06 -3.420073114e-08 1.013164274e-05 )
( 3.495390411e-05 -1.002428689e-05 3.584850958e-07 1.523326591e-05 2.730532174e-07 1.705581599e-05 )
( 3.918389848e-05 -1.151246761e-05 4.889227512e-07 1.642794086e-05 3.227376624e-07 1.881929347e-05 )
( 4.443764192e-05 -1.3377703e-05 3.09018418e-07 1.778910701e-05 4.034329493e-07 2.115541247e-05 )
( 5.044097634e-05 -1.555629206e-05 -4.118978225e-08 1.924164644e-05 6.418108001e-07 2.406721069e-05 )
( 6.531054532e-05 -2.120632234e-05 -3.973026423e-07 2.596779814e-05 1.105916454e-06 3.403954179e-05 )
( 6.550792023e-05 -2.124478124e-05 -4.638902169e-07 2.59706685e-05 1.095505809e-06 3.417528933e-05 )
( 6.157908501e-05 -1.972273094e-05 -4.499528643e-07 2.330105235e-05 9.966122434e-07 3.105014548e-05 )
( 5.736203457e-05 -1.811790935e-05 -3.659974936e-07 2.137052797e-05 8.67908966e-07 2.812873572e-05 )
( 1.74454417e-05 -3.798101488e-06 -4.672346847e-07 8.209850421e-06 -3.142386262e-08 1.009216066e-05 )
( 1.957473432e-05 -4.726595307e-06 -5.150517381e-07 9.371205124e-06 -1.938690275e-08 1.061887997e-05 )
( 2.190105624e-05 -5.64115544e-06 -5.534601542e-07 1.047658589e-05 1.435264174e-08 1.135249568e-05 )
( 2.434448106e-05 -6.488964573e-06 -5.09510528e-07 1.151793731e-05 5.548465509e-08 1.227970097e-05 )
( 2.672430674e-05 -7.243671917e-06 -3.273889035e-07 1.248225635e-05 8.578585664e-08 1.335122033e-05 )
( 2.908018178e-05 -8.012446415e-06 -7.07360357e-08 1.338274797e-05 1.123866866e-07 1.448899457e-05 )
( 3.173806545e-05 -8.952454664e-06 1.589614271e-07 1.42680301e-05 1.935289617e-07 1.573187001e-05 )
( 1.565593629e-05 -2.885939239e-06 -4.528496049e-07 7.004245617e-06 -2.308956404e-08 9.715688066e-06 )
( 3.515579738e-05 -1.017501745e-05 3.589367736e-07 1.529314432e-05 2.797318643e-07 1.722000707e-05 )
( 3.954526619e-05 -1.170443102e-05 4.514999432e-07 1.649887417e-05 3.143368303e-07 1.90350147e-05 )
( 4.499350325e-05 -1.35901837e-05 2.108325532e-07 1.780476487e-05 4.502543902e-07 2.143346501e-05 )
( 5.110387792e-05 -1.580331445e-05 -1.399095169e-07 1.926299956e-05 7.001685844e-07 2.443030098e-05 )
( 7.029825792e-05 -2.352116462e-05 -3.788370009e-07 3.020403528e-05 1.175160833e-06 3.841626312e-05 )
( 7.029249537e-05 -2.352318916e-05 -3.928926162e-07 3.022474993e-05 1.113377266e-06 3.852749796e-05 )
( 6.574870349e-05 -2.129980749e-05 -5.4073206e-07 2.601997585e-05 1.074356533e-06 3.437286796e-05 )
( 6.197347102e-05 -1.99638489e-05 -5.879539913e-07 2.343488268e-05 9.115127568e-07 3.13733035e-05 )
( 6.591616693e-05 -2.139570643e-05 -5.75471347e-07 2.606960516e-05 1.018523562e-06 3.45238368e-05 )
( 5.804903049e-05 -1.850097397e-05 -5.000374017e-07 2.160580698e-05 8.572009165e-07 2.858092921e-05 )
( 1.570632958e-05 -2.87849025e-06 -4.498134558e-07 6.977759767e-06 -2.767905904e-08 9.682878954e-06 )
( 1.750807314e-05 -3.786009074e-06 -4.779752203e-07 8.175935363e-06 -2.730020654e-08 1.005560625e-05 )
( 1.961175258e-05 -4.710470421e-06 -5.394617801e-07 9.327679436e-06 -3.00808245e-09 1.059135411e-05 )
( 2.193022192e-05 -5.618991963e-06 -5.778300078e-07 1.043132943e-05 3.710584906e-08 1.134090508e-05 )
( 2.434316048e-05 -6.460822078e-06 -5.170993518e-07 1.148015417e-05 7.767705767e-08 1.227663415e-05 )
( 2.673076779e-05 -7.230572464e-06 -3.274824678e-07 1.245807925e-05 1.036352941e-07 1.33583444e-05 )
( 2.910494186e-05 -8.044309652e-06 -7.188565121e-08 1.337270896e-05 1.346354992e-07 1.452561537e-05 )
( 3.185919195e-05 -9.051143024e-06 1.579341529e-07 1.429324857e-05 2.167689388e-07 1.584713209e-05 )
( 1.433394209e-05 -2.014275879e-06 -4.604452783e-07 5.758921361e-06 -1.140553429e-08 9.368936844e-06 )
( 3.536089571e-05 -1.033436456e-05 3.607040355e-07 1.53539022e-05 2.690184147e-07 1.739921754e-05 )
( 3.999165347e-05 -1.188781243e-05 3.834740596e-07 1.653690742e-05 3.230918821e-07 1.926701952e-05 )
( 4.558825458e-05 -1.383265226e-05 9.195767348e-08 1.780883758e-05 5.123548021e-07 2.172551103e-05 )
( 5.181609959e-05 -1.611499101e-05 -2.28281209e-07 1.935297041e-05 7.442221204e-07 2.485357254e-05 )
( 7.174314669e-05 -2.451201181e-05 -2.875633243e-07 3.217638732e-05 1.158900659e-06 4.033229197e-05 )
( 7.157577056e-05 -2.449937347e-05 -2.667140393e-07 3.223249587e-05 1.082108383e-06 4.039071791e-05 )
( 7.023892249e-05 -2.355971446e-05 -4.348316622e-07 3.03171837e-05 1.050521178e-06 3.862985614e-05 )
( 6.253476022e-05 -2.043189488e-05 -8.094633586e-07 2.378373028e-05 8.841057024e-07 3.167868999e-05 )
( 6.627972471e-05 -2.174936526e-05 -7.851853638e-07 2.633210897e-05 9.156169085e-07 3.47185196e-05 )
( 6.613026198e-05 -2.155029324e-05 -6.724252444e-07 2.620914347e-05 9.53283859e-07 3.46681918e-05 )
( 7.017169992e-05 -2.365118962e-05 -4.918473451e-07 3.039399598e-05 9.710095128e-07 3.866569386e-05 )
( 5.868016888e-05 -1.898429764e-05 -6.369014045e-07 2.19180838e-05 8.734805306e-07 2.892633711e-05 )
( 1.575780334e-05 -2.872058758e-06 -4.495519477e-07 6.951560408e-06 -3.145689931e-08 9.651682376e-06 )
( 1.435520153e-05 -2.011945071e-06 -4.534606148e-07 5.736182175e-06 -1.997171317e-08 9.345506442e-06 )
( 1.755105041e-05 -3.775650157e-06 -4.937946869e-07 8.142413208e-06 -2.144224354e-08 1.002263616e-05 )
( 1.963725663e-05 -4.695963526e-06 -5.675237844e-07 9.28742611e-06 1.399426708e-08 1.057023928e-05 )
( 2.197213325e-05 -5.59770433e-06 -6.007497859e-07 1.039280778e-05 5.804652403e-08 1.133542173e-05 )
( 2.434515773e-05 -6.435351679e-06 -5.219376362e-07 1.145007536e-05 9.707317616e-08 1.227830489e-05 )
( 2.672038681e-05 -7.227423794e-06 -3.268157514e-07 1.244081068e-05 1.195885488e-07 1.337289996e-05 )
( 2.916148514e-05 -8.093125871e-06 -7.193975193e-08 1.337392314e-05 1.569478485e-07 1.457931285e-05 )
( 3.197024489e-05 -9.16740828e-06 1.646700838e-07 1.432967474e-05 2.254578675e-07 1.598257586e-05 )
( 1.354263986e-05 -1.15305977e-06 -4.369131261e-07 4.362388609e-06 1.316143194e-09 9.106721336e-06 )
( 3.562982238e-05 -1.049287675e-05 3.503470793e-07 1.539926961e-05 2.546092617e-07 1.75906298e-05 )
( 4.048033588e-05 -1.208979484e-05 2.817485552e-07 1.655384585e-05 3.583875809e-07 1.950849037e-05 )
( 4.621651169e-05 -1.411742778e-05 -2.189841908e-08 1.783570769e-05 5.780723882e-07 2.205899364e-05 )
( 5.249689639e-05 -1.650657578e-05 -3.044301593e-07 1.950159458e-05 7.849027384e-07 2.529987069e-05 )
( 7.276207907e-05 -2.543803748e-05 -2.615813344e-07 3.405075404e-05 1.093726837e-06 4.201270349e-05 )
( 7.244825247e-05 -2.540244895e-05 -1.724313989e-07 3.413552258e-05 1.005305876e-06 4.199220348e-05 )
( 7.1364826e-05 -2.451842738e-05 -2.795364935e-07 3.232983363e-05 1.010714641e-06 4.040562271e-05 )
( 6.649010174e-05 -2.202471296e-05 -9.145720128e-07 2.656365177e-05 9.070776059e-07 3.479039151e-05 )
( 6.658049824e-05 -2.227771256e-05 -9.688943692e-07 2.677412886e-05 9.233603464e-07 3.483160981e-05 )
( 6.292139733e-05 -2.09663649e-05 -9.765159348e-07 2.422239413e-05 9.198889757e-07 3.180648127e-05 )
( 7.00257151e-05 -2.40220088e-05 -6.974338476e-07 3.067166836e-05 8.867490919e-07 3.856556214e-05 )
( 7.010997797e-05 -2.380172009e-05 -6.046818157e-07 3.054253466e-05 9.24363917e-07 3.862542872e-05 )
( 7.116891356e-05 -2.458076779e-05 -3.34989835e-07 3.241121158e-05 9.39294921e-07 4.032809738e-05 )
( 5.828364374e-05 -1.912311564e-05 -6.700485642e-07 2.185756784e-05 8.77370951e-07 2.853915794e-05 )
( 1.58121893e-05 -2.866962859e-06 -4.527917383e-07 6.92552976e-06 -3.387228276e-08 9.622356629e-06 )
( 1.441817676e-05 -2.010136086e-06 -4.471474995e-07 5.71346709e-06 -2.812953248e-08 9.323325685e-06 )
( 1.356665234e-05 -1.151602419e-06 -4.286101785e-07 4.342165084e-06 -8.899837312e-09 9.093903827e-06 )
( 1.759092447e-05 -3.767465842e-06 -5.14556973e-07 8.11010068e-06 -1.374177572e-08 9.993927051e-06 )
( 1.969973709e-05 -4.683825409e-06 -5.975950899e-07 9.251958545e-06 3.085552436e-08 1.055571374e-05 )
( 2.197798312e-05 -5.577458069e-06 -6.20960634e-07 1.036148569e-05 7.655749812e-08 1.13343749e-05 )
( 2.434852286e-05 -6.415022654e-06 -5.244452836e-07 1.142763085e-05 1.132134457e-07 1.228417841e-05 )
( 2.671687253e-05 -7.23684434e-06 -3.254726266e-07 1.243230872e-05 1.339093529e-07 1.339719438e-05 )
( 2.921601663e-05 -8.158516721e-06 -6.770495986e-08 1.338713264e-05 1.749559431e-07 1.465466357e-05 )
( 3.210190334e-05 -9.294312804e-06 1.752012793e-07 1.436565253e-05 2.198240452e-07 1.613481436e-05 )
( 1.336540572e-05 -6.616785981e-07 -3.726203772e-07 3.39728399e-06 6.847037604e-09 9.072485227e-06 )
( 1.338854781e-05 -6.595585091e-07 -3.690721542e-07 3.388903906e-06 2.677189803e-09 9.070980923e-06 )
( 3.595529779e-05 -1.065686774e-05 3.118297514e-07 1.542886821e-05 2.533617192e-07 1.778874139e-05 )
( 4.100192746e-05 -1.232641171e-05 1.60717974e-07 1.657113899e-05 4.16678688e-07 1.977176726e-05 )
( 4.684356463e-05 -1.445961789e-05 -1.062738164e-07 1.790388706e-05 6.395969194e-07 2.24517953e-05 )
( 5.316432726e-05 -1.698437336e-05 -3.777495579e-07 1.970841367e-05 8.196233239e-07 2.569333083e-05 )
( 7.379709859e-05 -2.658695485e-05 -1.316482354e-07 3.641787771e-05 8.513753755e-07 4.426102169e-05 )
( 7.2103001e-05 -2.539805428e-05 -1.476985574e-07 3.422131704e-05 9.318530374e-07 4.190200707e-05 )
( 7.33076231e-05 -2.654753007e-05 3.495753376e-08 3.646255936e-05 7.798541901e-07 4.412762064e-05 )
( 6.985916843e-05 -2.421122917e-05 -7.299179288e-07 3.084135096e-05 8.893255199e-07 3.848535198e-05 )
( 6.960625615e-05 -2.442438199e-05 -7.202058896e-07 3.103647759e-05 9.114434647e-07 3.847447078e-05 )
( 6.65784537e-05 -2.258110544e-05 -1.018194666e-06 2.712138303e-05 9.551569065e-07 3.486430069e-05 )
( 6.304398994e-05 -2.144951395e-05 -9.193367987e-07 2.484813558e-05 9.094283087e-07 3.198252671e-05 )
( 6.638997729e-05 -2.285545997e-05 -9.781530252e-07 2.7437276e-05 9.655569784e-07 3.485361231e-05 )
( 7.077779446e-05 -2.48765773e-05 -4.585767215e-07 3.261406528e-05 8.434089409e-07 4.00619756e-05 )
( 7.097655907e-05 -2.47094722e-05 -4.099330226e-07 3.252289389e-05 8.809189467e-07 4.019580592e-05 )
( 7.176553481e-05 -2.542149923e-05 -1.910913596e-07 3.425751129e-05 8.727719774e-07 4.174245259e-05 )
( 5.849642912e-05 -1.965000774e-05 -7.133658642e-07 2.222368676e-05 8.344943012e-07 2.864908311e-05 )
( 1.448205694e-05 -2.009315722e-06 -4.41946554e-07 5.691011665e-06 -3.540720428e-08 9.302646504e-06 )
( 1.585778227e-05 -2.863665941e-06 -4.601864703e-07 6.900211702e-06 -3.449703456e-08 9.595201846e-06 )
( 1.362544572e-05 -1.150418484e-06 -4.199329169e-07 4.321997494e-06 -1.897829804e-08 9.082461474e-06 )
( 1.341219831e-05 -6.592268846e-07 -3.640774366e-07 3.378960628e-06 -3.060751208e-09 9.067646715e-06 )
( 1.344198699e-05 -6.569464972e-07 -3.603279026e-07 3.370717423e-06 -7.234653321e-09 9.066685379e-06 )
( 1.763738692e-05 -3.761920425e-06 -5.394678624e-07 8.080335647e-06 -4.401171871e-09 9.970101928e-06 )
( 1.974603947e-05 -4.673958756e-06 -6.281094329e-07 9.222253539e-06 4.671613141e-08 1.054733184e-05 )
( 2.197945105e-05 -5.559955753e-06 -6.375415751e-07 1.033763783e-05 9.225968256e-08 1.133559817e-05 )
( 2.43210834e-05 -6.402098279e-06 -5.250835784e-07 1.141395751e-05 1.258309794e-07 1.229500231e-05 )
( 2.671204857e-05 -7.25987411e-06 -3.221601048e-07 1.243398128e-05 1.460890786e-07 1.343520489e-05 )
( 2.926040361e-05 -8.237757356e-06 -5.864658092e-08 1.340656127e-05 1.839818111e-07 1.475324734e-05 )
( 3.226022454e-05 -9.429100828e-06 1.789267969e-07 1.439646257e-05 2.079710555e-07 1.629961662e-05 )
( 1.344331395e-05 -1.947996111e-07 -2.092253339e-07 2.293864782e-06 4.611124815e-09 9.088081242e-06 )
( 1.348314436e-05 -1.930822719e-07 -2.055283801e-07 2.288557425e-06 1.289406248e-09 9.089209016e-06 )
( 3.635178291e-05 -1.083851112e-05 2.387111522e-07 1.545052874e-05 2.761544806e-07 1.799334859e-05 )
( 4.151626854e-05 -1.260855333e-05 5.35091651e-08 1.661073838e-05 4.833564731e-07 2.007607509e-05 )
( 4.749534855e-05 -1.487291593e-05 -1.652909418e-07 1.801809231e-05 6.96283621e-07 2.287511052e-05 )
( 5.367237463e-05 -1.748487557e-05 -4.526681323e-07 1.995582716e-05 8.29564442e-07 2.596895501e-05 )
( 7.436199667e-05 -2.758491974e-05 -9.700464432e-08 3.843168815e-05 6.009164508e-07 4.653255746e-05 )
( 7.280516002e-05 -2.653662887e-05 1.093369377e-07 3.646718324e-05 7.264698638e-07 4.395140058e-05 )
( 7.370987441e-05 -2.753855733e-05 6.193556601e-08 3.839001511e-05 5.504689398e-07 4.622715642e-05 )
( 7.047601684e-05 -2.491500345e-05 -5.197413202e-07 3.244484105e-05 8.626524846e-07 3.974882202e-05 )
( 7.012917195e-05 -2.508080433e-05 -5.055067049e-07 3.259765799e-05 8.957880482e-07 3.971100523e-05 )
( 6.915003178e-05 -2.45280371e-05 -6.944635516e-07 3.10615651e-05 9.362736932e-07 3.828297849e-05 )
( 6.260188093e-05 -2.208791921e-05 -7.074663699e-07 2.543280425e-05 7.899210459e-07 3.191344513e-05 )
( 6.657051563e-05 -2.415143354e-05 -5.505186209e-07 2.918120117e-05 8.614621834e-07 3.58215475e-05 )
( 6.848460907e-05 -2.460238102e-05 -5.662958529e-07 3.092879706e-05 9.247404478e-07 3.786239904e-05 )
( 7.125228876e-05 -2.560585926e-05 -2.195406523e-07 3.436378029e-05 7.687894481e-07 4.146184438e-05 )
( 7.150207239e-05 -2.550513818e-05 -2.154931735e-07 3.431208825e-05 7.951652492e-07 4.157776129e-05 )
( 7.237505633e-05 -2.65098588e-05 8.223294401e-08 3.641236253e-05 6.957769187e-07 4.381544568e-05 )
( 5.834332842e-05 -2.014724305e-05 -7.200311529e-07 2.262010275e-05 7.681015859e-07 2.876881808e-05 )
( 1.367451114e-05 -1.150008188e-06 -4.109354563e-07 4.302299203e-06 -2.862548953e-08 9.072567082e-06 )
( 1.452807828e-05 -2.009529453e-06 -4.385864258e-07 5.669373877e-06 -4.136648712e-08 9.283665349e-06 )
( 1.588334635e-05 -2.86272234e-06 -4.71878451e-07 6.876361567e-06 -3.307440721e-08 9.570537259e-06 )
( 1.34858883e-05 -6.566168622e-07 -3.551077725e-07 3.360956953e-06 -1.293446772e-08 9.064136975e-06 )
( 1.349339072e-05 -6.542645679e-07 -3.509649105e-07 3.353002967e-06 -1.703045704e-08 9.063690413e-06 )
( 1.350985531e-05 -1.901948394e-07 -2.032114423e-07 2.278971124e-06 -2.275382549e-09 9.087785656e-06 )
( 1.355772474e-05 -1.882679612e-07 -1.987014429e-07 2.274086228e-06 -5.820374405e-09 9.089646483e-06 )
( 1.771122879e-05 -3.759655328e-06 -5.677973149e-07 8.054023965e-06 6.093349825e-09 9.951709217e-06 )
( 1.977477586e-05 -4.667150279e-06 -6.571602853e-07 9.198998669e-06 6.081619119e-08 1.05436302e-05 )
( 2.195926209e-05 -5.546349712e-06 -6.500119412e-07 1.032197997e-05 1.048330205e-07 1.133786373e-05 )
( 2.430266977e-05 -6.39965765e-06 -5.236961442e-07 1.140991117e-05 1.345820806e-07 1.231293209e-05 )
( 2.669738205e-05 -7.29565636e-06 -3.157793458e-07 1.244332179e-05 1.546532502e-07 1.349049762e-05 )
( 2.93230878e-05 -8.329238881e-06 -4.847690604e-08 1.342765245e-05 1.830735954e-07 1.487282771e-05 )
( 3.248059875e-05 -9.573290299e-06 1.634611237e-07 1.442307257e-05 2.019267527e-07 1.647160934e-05 )
( 1.363691354e-05 1.028449645e-07 -5.027710159e-08 1.566036076e-06 2.733383964e-09 9.076818969e-06 )
( 1.367927962e-05 1.077849348e-07 -4.858019764e-08 1.559400175e-06 6.619169102e-10 9.074710761e-06 )
( 3.677298082e-05 -1.104938201e-05 1.497517701e-07 1.548023283e-05 3.212510933e-07 1.821772457e-05 )
( 4.204007564e-05 -1.294566209e-05 -2.640546448e-08 1.668339974e-05 5.474360592e-07 2.042308006e-05 )
( 4.810860264e-05 -1.532335045e-05 -2.217692128e-07 1.817638258e-05 7.456582125e-07 2.326266622e-05 )
( 5.391443119e-05 -1.798607082e-05 -5.348862828e-07 2.030334326e-05 8.051639497e-07 2.618402868e-05 )
( 7.31524342e-05 -2.749974556e-05 1.733830572e-07 3.829789785e-05 5.198382951e-07 4.594567145e-05 )
( 7.095130422e-05 -2.563624366e-05 -2.801365611e-07 3.423922317e-05 8.107159601e-07 4.123811959e-05 )
( 7.058028132e-05 -2.575667895e-05 -2.910848593e-07 3.438552449e-05 8.587940101e-07 4.115919728e-05 )
( 6.9518901e-05 -2.498174763e-05 -5.554197173e-07 3.211210787e-05 9.270494274e-07 3.916608694e-05 )
( 6.458786083e-05 -2.383964602e-05 -4.642458293e-07 2.811244303e-05 7.600823437e-07 3.450709846e-05 )
( 6.835276145e-05 -2.541791218e-05 -1.879677143e-07 3.251275848e-05 8.41764404e-07 3.874236791e-05 )
( 6.774635403e-05 -2.536123611e-05 -1.926570974e-07 3.18764105e-05 8.125090289e-07 3.79949779e-05 )
( 6.932033284e-05 -2.548002703e-05 -2.759790334e-07 3.307079533e-05 8.831871128e-07 3.96733376e-05 )
( 7.172956975e-05 -2.644183405e-05 3.191082598e-08 3.64554071e-05 6.902107543e-07 4.366668873e-05 )
( 7.202497363e-05 -2.647085057e-05 6.340810188e-08 3.641680814e-05 6.702987321e-07 4.373454794e-05 )
( 7.268266927e-05 -2.735492853e-05 1.852337732e-07 3.822240978e-05 5.340513667e-07 4.57508213e-05 )
( 5.788577619e-05 -2.059894905e-05 -7.316708661e-07 2.30636615e-05 7.317759696e-07 2.895893704e-05 )
( 1.370338668e-05 -1.150174171e-06 -4.019127857e-07 4.283579983e-06 -3.751517497e-08 9.064595361e-06 )
( 1.352675372e-05 -6.541447419e-07 -3.454040893e-07 3.343671324e-06 -2.255107923e-08 9.061853234e-06 )
( 1.354823871e-05 -6.519424005e-07 -3.412087608e-07 3.336161171e-06 -2.647007591e-08 9.061879609e-06 )
( 1.456503196e-05 -2.011079914e-06 -4.375401943e-07 5.649065315e-06 -4.571175793e-08 9.266605048e-06 )
( 1.596442235e-05 -2.8645984e-06 -4.882595022e-07 6.854412277e-06 -2.95358511e-08 9.54891766e-06 )
( 1.357379915e-05 -1.858717553e-07 -1.951073472e-07 2.265163857e-06 -9.484124597e-09 9.089038031e-06 )
( 1.361697014e-05 -1.824549258e-07 -1.908016856e-07 2.260211659e-06 -1.287879581e-08 9.092017535e-06 )
( 1.371798862e-05 1.10795753e-07 -4.706303969e-08 1.554036317e-06 -1.515168546e-09 9.072586181e-06 )
( 1.375260854e-05 1.140950161e-07 -4.259435826e-08 1.548469413e-06 -4.031455614e-09 9.071416571e-06 )
( 1.776644422e-05 -3.760746495e-06 -5.981527806e-07 8.031986908e-06 1.709871889e-08 9.938871699e-06 )
( 1.977246211e-05 -4.663108484e-06 -6.831523933e-07 9.182579561e-06 7.259490076e-08 1.054262066e-05 )
( 2.196551213e-05 -5.538890036e-06 -6.578824241e-07 1.031517058e-05 1.136398922e-07 1.134159356e-05 )
( 2.424917147e-05 -6.40777489e-06 -5.19672426e-07 1.141402936e-05 1.390602904e-07 1.23410282e-05 )
( 2.67098676e-05 -7.343681318e-06 -3.064193379e-07 1.245637213e-05 1.579946769e-07 1.356463144e-05 )
( 2.941468847e-05 -8.431579772e-06 -4.348721916e-08 1.345050987e-05 1.758454289e-07 1.500853887e-05 )
( 3.274549454e-05 -9.732678336e-06 1.26019458e-07 1.445075668e-05 2.105653465e-07 1.665322634e-05 )
( 1.397325104e-05 3.445142909e-07 1.591088363e-07 8.137235454e-07 1.257566495e-09 8.958371836e-06 )
( 1.400531528e-05 3.482803947e-07 1.621583436e-07 8.10121719e-07 5.105822432e-10 8.949619769e-06 )
( 3.718335211e-05 -1.129849807e-05 6.717178991e-08 1.553200855e-05 3.784652449e-07 1.847346357e-05 )
( 4.257085675e-05 -1.33176618e-05 -8.833252707e-08 1.678110129e-05 6.068359539e-07 2.078780381e-05 )
( 4.857175009e-05 -1.581056495e-05 -2.906255645e-07 1.842146412e-05 7.786806009e-07 2.358346501e-05 )
( 5.390845763e-05 -1.846673695e-05 -6.179672027e-07 2.0723548e-05 7.6853064e-07 2.641192805e-05 )
( 7.142321556e-05 -2.646876783e-05 -4.114815866e-08 3.655938781e-05 7.494928127e-07 4.3590102e-05 )
( 7.102693053e-05 -2.653937008e-05 -1.165339967e-07 3.667603596e-05 8.174334312e-07 4.344122499e-05 )
( 7.010609988e-05 -2.590014265e-05 -2.301056412e-07 3.449214273e-05 8.870226793e-07 4.099428043e-05 )
( 6.657707127e-05 -2.598138781e-05 -2.698606067e-07 3.317167648e-05 6.999450761e-07 3.891156666e-05 )
( 6.854107778e-05 -2.592961391e-05 -6.000281161e-08 3.381428178e-05 8.008189525e-07 3.973499042e-05 )
( 6.79957011e-05 -2.606762246e-05 -6.400086505e-08 3.394243686e-05 7.377815336e-07 3.968652891e-05 )
( 6.962687621e-05 -2.605597183e-05 -1.022232965e-07 3.447023846e-05 8.50481797e-07 4.07092848e-05 )
( 7.184439164e-05 -2.705782754e-05 9.824440639e-08 3.827489491e-05 6.119921068e-07 4.555976193e-05 )
( 7.226207526e-05 -2.718928044e-05 1.507711147e-07 3.824994928e-05 5.631603699e-07 4.562435424e-05 )
( 5.721599882e-05 -2.105436215e-05 -7.274139193e-07 2.357299309e-05 7.410482681e-07 2.923478678e-05 )
( 1.375809825e-05 -1.151101287e-06 -3.930754531e-07 4.266149062e-06 -4.539191778e-08 9.058628166e-06 )
( 1.356042594e-05 -6.519579188e-07 -3.353509328e-07 3.327480044e-06 -3.166349316e-08 9.0609783e-06 )
( 1.359613634e-05 -6.499031429e-07 -3.31065479e-07 3.320502401e-06 -3.53203653e-08 9.061595847e-06 )
( 1.363031879e-05 -1.790410806e-07 -1.865844723e-07 2.251662863e-06 -1.636982461e-08 9.09191931e-06 )
( 1.367678851e-05 -1.760040078e-07 -1.826685576e-07 2.247457815e-06 -1.979607056e-08 9.095542737e-06 )
( 1.462591172e-05 -2.014145366e-06 -4.394725011e-07 5.630281066e-06 -4.824466515e-08 9.251569281e-06 )
( 1.602544035e-05 -2.869128139e-06 -5.089634101e-07 6.834759006e-06 -2.396688181e-08 9.530868738e-06 )
( 1.37775196e-05 1.168484545e-07 -3.992481368e-08 1.54346526e-06 -6.266594355e-09 9.070790838e-06 )
( 1.382799655e-05 1.229439164e-07 -3.648337099e-08 1.537437015e-06 -8.406328078e-09 9.071030036e-06 )
( 1.403757688e-05 3.519596703e-07 1.650520858e-07 8.067501085e-07 -2.531187204e-10 8.941233318e-06 )
( 1.407963373e-05 3.555574324e-07 1.681952426e-07 8.036959684e-07 -1.327777222e-09 8.933019672e-06 )
( 1.780269304e-05 -3.764914482e-06 -6.289656085e-07 8.014706509e-06 2.79550445e-08 9.931116438e-06 )
( 1.97944446e-05 -4.662958418e-06 -7.046785413e-07 9.173592844e-06 8.148029451e-08 1.054260974e-05 )
( 2.191850763e-05 -5.538097867e-06 -6.605624208e-07 1.031677584e-05 1.178423332e-07 1.134874128e-05 )
( 2.422410034e-05 -6.426627806e-06 -5.12068425e-07 1.142335441e-05 1.390806261e-07 1.23822756e-05 )
( 2.672872506e-05 -7.402801202e-06 -2.959910432e-07 1.247245291e-05 1.5541886e-07 1.36569779e-05 )
( 2.953564945e-05 -8.544784578e-06 -4.963323619e-08 1.347704256e-05 1.689739406e-07 1.515722124e-05 )
( 3.303641279e-05 -9.912517271e-06 7.269067481e-08 1.448848343e-05 2.366571437e-07 1.685192547e-05 )
( 1.414053077e-05 3.860448032e-07 2.697694299e-07 4.624639303e-07 -2.199638804e-10 8.499768228e-06 )
( 1.416701161e-05 3.885576803e-07 2.732342352e-07 4.604279127e-07 -5.800226965e-10 8.486072147e-06 )
( 3.759341053e-05 -1.157659335e-05 6.290656884e-11 1.560526653e-05 4.369762792e-07 1.876236456e-05 )