/*--------------------------------*- C++ -*----------------------------------*\
  =========                 |
  \\      /  F ield         | OpenFOAM: The Open Source CFD Toolbox
   \\    /   O peration     | Website:  https://openfoam.org
    \\  /    A nd           | Version:  8
     \\/     M anipulation  |
\*---------------------------------------------------------------------------*/






FoamFile
{
    version     2.0;
    format      ascii;
    class       volVectorField;
    location    "0";
    object      UDDES;
}
// * * * * * * * * * * * * * * * * * * * * * * * * * * * * * * * * * * * * * //

dimensions      [0 1 -1 0 0 0 0];


internalField   nonuniform List<vector> 
13630
(
( 0.02404325083 -0.002017197432 -0.0001174266363 )
( 0.02523639239 -0.001845031627 -8.165611507e-05 )
( 0.02374783158 -0.002001550514 -0.0001216958699 )
( 0.02621177025 -0.001685056835 -3.41784762e-05 )
( 0.02504726127 -0.001815342344 -7.903106598e-05 )
( 0.02353388444 -0.001961099217 -0.000116903313 )
( 0.02704359964 -0.001536150579 1.910025094e-05 )
( 0.02604175545 -0.001654335996 -2.829117511e-05 )
( 0.02485620044 -0.001773783471 -7.72305284e-05 )
( 0.02332680486 -0.001906043384 -0.0001064106837 )
( 0.02775976807 -0.001402663998 6.704161933e-05 )
( 0.02689203992 -0.001505886205 2.450059401e-05 )
( 0.02587160282 -0.001611524262 -2.284450602e-05 )
( 0.02466402762 -0.001719895052 -7.376422582e-05 )
( 0.02312397398 -0.001833814313 -9.187870455e-05 )
( 0.02840374038 -0.00128354819 9.126037912e-05 )
( 0.02762492187 -0.001373135368 6.976462464e-05 )
( 0.02674154565 -0.001463808818 3.107301018e-05 )
( 0.0257011205 -0.001557267504 -1.823630009e-05 )
( 0.02447371371 -0.001652127015 -6.619306077e-05 )
( 0.02292869613 -0.001746251713 -7.847249799e-05 )
( 0.02828238159 -0.001254619681 9.214826423e-05 )
( 0.02899115533 -0.001174065634 8.912678459e-05 )
( 0.02749115042 -0.001332469517 7.365025522e-05 )
( 0.02659238875 -0.001410366269 3.764299254e-05 )
( 0.02553123049 -0.001491293311 -1.328748931e-05 )
( 0.02428783849 -0.001569935703 -5.470176256e-05 )
( 0.02272934094 -0.001639797818 -6.74161347e-05 )
( 0.02887757495 -0.001146641094 8.924696886e-05 )
( 0.02816263214 -0.001215240802 9.331986075e-05 )
( 0.02952314168 -0.001069774386 6.959123129e-05 )
( 0.02735904977 -0.00128088973 7.84286749e-05 )
( 0.02644474804 -0.001345908735 4.361225365e-05 )
( 0.02536378987 -0.001413054066 -6.602667327e-06 )
( 0.02410789207 -0.001474970835 -4.185525904e-05 )
( 0.02255541831 -0.001535983058 -6.033453974e-05 )
( 0.02941190079 -0.001044173259 6.967065565e-05 )
( 0.02876619063 -0.001109286211 8.916021761e-05 )
( 0.02804465778 -0.001165681519 9.502562898e-05 )
( 0.0299954433 -0.0009668426355 4.210039697e-05 )
( 0.02722923458 -0.001218764344 8.362707013e-05 )
( 0.0262993183 -0.001270451001 4.912004079e-05 )
( 0.02520064451 -0.001322806231 2.026416041e-06 )
( 0.02393294685 -0.001368612284 -3.037780334e-05 )
( 0.02237820253 -0.001417131396 -4.690084097e-05 )
( 0.02988502197 -0.0009431923972 4.254535452e-05 )
( 0.02930320054 -0.001009379281 6.951353862e-05 )
( 0.02865741402 -0.00106227072 8.910534962e-05 )
( 0.02792926505 -0.001106314943 9.736608627e-05 )
( 0.03041004017 -0.0008665190544 1.500820326e-05 )
( 0.02710239589 -0.001146438881 8.881372923e-05 )
( 0.02615746483 -0.001184084569 5.477954983e-05 )
( 0.02504253387 -0.00122114853 1.097663608e-05 )
( 0.02376196533 -0.001251905458 -1.855623668e-05 )
( 0.02219020948 -0.001280433033 -2.860168934e-05 )
( 0.03030135855 -0.0008449712768 1.559587326e-05 )
( 0.02977700531 -0.0009111968102 4.296591214e-05 )
( 0.02919791825 -0.0009656350594 6.924070476e-05 )
( 0.02855183743 -0.001005936647 8.926269948e-05 )
( 0.02781725302 -0.001037561335 0.0001003087964 )
( 0.03076129965 -0.0007714219973 -8.573436503e-07 )
( 0.02697937377 -0.001064121258 9.374978981e-05 )
( 0.02602029592 -0.001086881151 6.035338447e-05 )
( 0.0248889327 -0.001108966535 2.004130147e-05 )
( 0.02359345555 -0.001127162017 -3.927507805e-06 )
( 0.02104009315 -0.001359993941 -3.91745416e-05 )
( 0.02201464027 -0.001143464586 -1.039486506e-05 )
( 0.03065529838 -0.0007516130572 -3.375740789e-07 )
( 0.03019485995 -0.0008159851423 1.655667802e-05 )
( 0.02967283875 -0.0008710905677 4.336595521e-05 )
( 0.02909665555 -0.0009131957777 6.894615217e-05 )
( 0.02845045552 -0.0009407397592 8.97696882e-05 )
( 0.02770895697 -0.0009597359458 0.0001036963295 )
( 0.03103041649 -0.0006812792271 -5.136655091e-06 )
( 0.02686126344 -0.0009717282373 9.816141392e-05 )
( 0.02588811517 -0.0009793909267 6.560298789e-05 )
( 0.02473856881 -0.0009882051963 3.081161412e-05 )
( 0.02342617698 -0.000992915011 1.312505992e-05 )
( 0.01996398158 -0.001519002835 -4.859287583e-05 )
( 0.01988171041 -0.00145470188 -4.486735997e-05 )
( 0.02085519396 -0.001222512452 -2.460152973e-05 )
( 0.02183223888 -0.0009863425512 4.731302852e-07 )
( 0.03092707321 -0.0006630343851 -4.871040346e-06 )
( 0.03055140562 -0.0007252806681 7.856824027e-07 )
( 0.03009231202 -0.0007797274739 1.78256214e-05 )
( 0.02957328223 -0.0008231025422 4.378006997e-05 )
( 0.02900068276 -0.0008523745346 6.870301877e-05 )
( 0.02835315652 -0.000867099734 9.076541755e-05 )
( 0.02760573104 -0.0008727686945 0.0001072309969 )
( 0.03118893318 -0.0005956090754 -2.514161679e-06 )
( 0.02674894221 -0.0008694622084 0.0001015805465 )
( 0.02576047927 -0.0008630005177 7.15585993e-05 )
( 0.02459068038 -0.0008589448989 4.399597674e-05 )
( 0.02326148376 -0.0008457638905 2.866753312e-05 )
( 0.01826926321 -0.001645629294 -4.198234092e-05 )
( 0.01820152812 -0.001570401946 -4.368659938e-05 )
( 0.01978493482 -0.001375742839 -3.941083196e-05 )
( 0.02069426328 -0.00105326483 -1.900454845e-05 )
( 0.01970891282 -0.001304186648 -3.884339094e-05 )
( 0.02164507098 -0.0008129258058 8.009181329e-06 )
( 0.03108736686 -0.0005789551069 -2.606282578e-06 )
( 0.03082592785 -0.0006390404887 -4.075383913e-06 )
( 0.03045133501 -0.0006925823982 2.458145673e-06 )
( 0.02999454178 -0.0007363614859 1.934339889e-05 )
( 0.02947933413 -0.0007674544468 4.424622966e-05 )
( 0.0289096646 -0.000783528958 6.86039275e-05 )
( 0.02826123685 -0.0007852472481 9.228945419e-05 )
( 0.02750818431 -0.0007766458439 0.0001103400209 )
( 0.03119294345 -0.0005147480988 6.975350516e-06 )
( 0.02664265409 -0.0007581630489 0.0001042362856 )
( 0.02563654073 -0.0007386691868 7.945090329e-05 )
( 0.02444696985 -0.0007193090278 5.83863366e-05 )
( 0.02310160547 -0.000684687926 4.030283526e-05 )
( 0.01743413135 -0.001692477381 -3.487322465e-05 )
( 0.01738037542 -0.00161469134 -4.147075015e-05 )
( 0.01813900284 -0.001491294825 -4.376630386e-05 )
( 0.02049517259 -0.0008668383816 -1.090620481e-05 )
( 0.01953624934 -0.001126982039 -3.030310108e-05 )
( 0.01961247623 -0.001208436093 -3.51962517e-05 )
( 0.01807610132 -0.001404493582 -4.305066614e-05 )
( 0.02146420442 -0.0006225950783 1.445004636e-05 )
( 0.03098819405 -0.0005572089576 -2.395503088e-06 )
( 0.03109228611 -0.0004996586358 6.503483746e-06 )
( 0.03072821721 -0.0006094812998 -2.751706006e-06 )
( 0.03035580739 -0.0006536294241 4.602330591e-06 )
( 0.02990189567 -0.0006860609865 2.10643957e-05 )
( 0.02939135395 -0.0007043988444 4.475822425e-05 )
( 0.02882486023 -0.0007069869316 6.8781359e-05 )
( 0.02817484923 -0.0006952382973 9.417784167e-05 )
( 0.02741753682 -0.0006716851494 0.0001125182607 )
( 0.030932419 -0.0004268990597 2.409505214e-05 )
( 0.02654164843 -0.0006389715127 0.0001071586012 )
( 0.02551761828 -0.0006056850543 8.966194582e-05 )
( 0.02430992946 -0.0005683700438 7.156213542e-05 )
( 0.02295281552 -0.0005100083072 4.859661567e-05 )
( 0.0165897347 -0.001738266554 -4.250127677e-05 )
( 0.01654776558 -0.00165734347 -5.675805005e-05 )
( 0.017330423 -0.001531195943 -4.60706724e-05 )
( 0.0194297675 -0.001018406358 -2.452639092e-05 )
( 0.01933944412 -0.0009267225396 -2.180294905e-05 )
( 0.02030133456 -0.0006581192138 -4.117133813e-06 )
( 0.0179467015 -0.001210190356 -3.63208419e-05 )
( 0.01801290736 -0.001311553642 -3.906819984e-05 )
( 0.01728077978 -0.001442500507 -4.795619679e-05 )
( 0.02153217793 -0.000396599411 2.410851266e-05 )
( 0.03089216538 -0.0005305374507 -1.853913432e-06 )
( 0.03099333309 -0.0004800965835 6.151218258e-06 )
( 0.03083017096 -0.0004131624592 2.319397208e-05 )
( 0.03063454479 -0.0005744709051 -9.098582723e-07 )
( 0.03026492521 -0.0006085346686 7.133940471e-06 )
( 0.02981594577 -0.0006290380261 2.290824887e-05 )
( 0.02931005135 -0.0006342076813 4.534958134e-05 )
( 0.02874652669 -0.0006229872815 6.936321006e-05 )
( 0.02809539996 -0.0005971661885 9.604710067e-05 )
( 0.02733370289 -0.0005586886546 0.0001137753643 )
( 0.03058432415 -0.0003647013509 3.495647252e-05 )
( 0.03053871728 -0.0003600393247 3.451354132e-05 )
( 0.02644631267 -0.0005122351577 0.0001116844869 )
( 0.02540513687 -0.0004633426433 0.0001011774002 )
( 0.024181569 -0.0004062565858 8.187734784e-05 )
( 0.02281670831 -0.0003224822285 5.534291631e-05 )
( 0.01541275531 -0.001782619162 -6.70913505e-05 )
( 0.01650908589 -0.001571307657 -6.620839122e-05 )
( 0.01538074948 -0.001699268003 -9.010929352e-05 )
( 0.01788163371 -0.001101970323 -3.623072553e-05 )
( 0.01780804805 -0.0009841494029 -3.92162874e-05 )
( 0.01922792941 -0.0008019286906 -1.969860386e-05 )
( 0.02010102384 -0.0004889417905 -6.717260931e-06 )
( 0.01912438869 -0.0006878192071 -2.206886165e-05 )
( 0.01718042418 -0.001242918894 -5.117594264e-05 )
( 0.0172297731 -0.001346629695 -4.897331382e-05 )
( 0.01647040807 -0.001481506624 -7.106145495e-05 )
( 0.02139585093 -0.0001847275853 2.448854684e-05 )
( 0.03089739382 -0.0004561970127 5.948587841e-06 )
( 0.03079996072 -0.0004990623565 -9.36467643e-07 )
( 0.03072953224 -0.0003956589499 2.227079858e-05 )
( 0.03047820926 -0.0003527152585 3.389870835e-05 )
( 0.03043321706 -0.00034668218 3.339899558e-05 )
( 0.0305457525 -0.0005341140786 1.417688054e-06 )
( 0.03018022329 -0.0005574321258 9.935903108e-06 )
( 0.02973702177 -0.0005655246787 2.482248055e-05 )
( 0.02923652716 -0.0005571072688 4.608136442e-05 )
( 0.02867554501 -0.00053171115 7.034058217e-05 )
( 0.02802366391 -0.0004914613091 9.747770673e-05 )
( 0.02725694329 -0.0004383267369 0.0001148205629 )
( 0.0298025161 -0.0002966442844 3.610200656e-05 )
( 0.0297443606 -0.0002927149471 3.561043195e-05 )
( 0.02635724097 -0.0003778076789 0.0001185800938 )
( 0.02530121058 -0.0003112826671 0.0001119862427 )
( 0.02406262234 -0.0002332145959 8.981359133e-05 )
( 0.02270674706 -0.0001235861127 6.042992027e-05 )
( 0.01424437948 -0.001813398674 -6.631280849e-05 )
( 0.01535069849 -0.001612107619 -0.0001047362312 )
( 0.01422470156 -0.001731335768 -9.46772052e-05 )
( 0.01725375466 -0.001126522431 -4.999147859e-05 )
( 0.01719947159 -0.001003261656 -5.343539306e-05 )
( 0.01782880351 -0.0008510292973 -4.288187847e-05 )
( 0.01976099238 -0.0002405798296 -2.230556493e-05 )
( 0.01834399439 -0.0004632692726 -5.681609764e-05 )
( 0.01785575785 -0.0007058084011 -5.219559171e-05 )
( 0.01638638414 -0.001279624994 -8.203931066e-05 )
( 0.01642738283 -0.001384400879 -7.697045658e-05 )
( 0.01531766728 -0.001522241393 -0.0001132354373 )
( 0.02130952105 4.64272016e-05 2.182237949e-05 )
( 0.03063176572 -0.0003745059075 2.135028262e-05 )
( 0.03080552071 -0.0004280768917 5.941359632e-06 )
( 0.03071273305 -0.000462892116 3.941812281e-07 )
( 0.0303735137 -0.0003374231164 3.273127732e-05 )
( 0.03032976389 -0.000330071256 3.218854908e-05 )
( 0.0296865087 -0.0002857078216 3.526870205e-05 )
( 0.02962921932 -0.0002803433454 3.467436909e-05 )
( 0.03046222031 -0.0004885081435 4.16103785e-06 )
( 0.03010276891 -0.0005005002604 1.288883504e-05 )
( 0.02966613695 -0.00049573055 2.677054363e-05 )
( 0.02917069755 -0.0004733121314 4.698944758e-05 )
( 0.02861273289 -0.000433520443 7.151894533e-05 )
( 0.02795987204 -0.0003786465386 9.834257071e-05 )
( 0.02718723379 -0.0003111573751 0.0001168046947 )
( 0.02889434621 -0.0002452342305 2.854842205e-05 )
( 0.02882998809 -0.0002403568215 2.83762256e-05 )
( 0.02627666481 -0.0002352825104 0.0001270829671 )
( 0.02520563826 -0.0001500357321 0.0001211719355 )
( 0.02396197245 -5.021042671e-05 9.655233589e-05 )
( 0.0226338692 9.263485845e-05 6.340843538e-05 )
( 0.01420042757 -0.001643443829 -0.00011720373 )
( 0.01643937454 -0.001161443186 -8.231456013e-05 )
( 0.01639341563 -0.00103399239 -8.421507664e-05 )
( 0.01741595566 -0.0008615596453 -5.470460019e-05 )
( 0.01849930733 -0.0002375774638 -6.360498082e-05 )
( 0.01702529564 -0.0006055587437 -9.052974201e-05 )
( 0.01723688655 -0.0004912376171 -9.141501505e-05 )
( 0.01700169407 -0.0007344636833 -8.126630564e-05 )
( 0.01524763554 -0.001318344614 -0.0001221220009 )
( 0.01528330985 -0.001425706665 -0.0001192741693 )
( 0.0141788004 -0.00155438832 -0.0001303008321 )
( 0.02127404511 0.0003010866058 2.074430085e-05 )
( 0.030538233 -0.0003498173901 2.045871042e-05 )
( 0.03027174249 -0.0003189437557 3.148557153e-05 )
( 0.0302291885 -0.0003103179333 3.09113093e-05 )
( 0.03071836196 -0.0003958510642 6.176101124e-06 )
( 0.03063012101 -0.0004221432318 2.15758746e-06 )
( 0.02957249619 -0.0002718778851 3.415653555e-05 )
( 0.02951643616 -0.000265335897 3.348113023e-05 )
( 0.02876621671 -0.0002347236732 2.818445682e-05 )
( 0.02870365232 -0.000228428893 2.771473737e-05 )
( 0.03038550727 -0.0004377785372 7.211739558e-06 )
( 0.03003336489 -0.0004379440797 1.587345105e-05 )
( 0.02960304171 -0.0004198614042 2.869897617e-05 )
( 0.02911412343 -0.000383190345 4.803416232e-05 )
( 0.02855826356 -0.0003288986918 7.264364103e-05 )
( 0.02790447697 -0.0002593340178 9.895317635e-05 )
( 0.02712597698 -0.0001774114207 0.0001204263535 )
( 0.02723630331 -0.0001812621485 1.146412069e-05 )
( 0.02716181427 -0.0001765764027 1.143927329e-05 )
( 0.02620640956 -8.471035108e-05 0.0001359086309 )
( 0.02512318641 1.927927406e-05 0.0001292057859 )
( 0.02389099635 0.0001466769318 0.0001022953147 )
( 0.02259943075 0.0003257888602 6.495139678e-05 )
( 0.01521243807 -0.001197795151 -0.0001204101427 )
( 0.01518553682 -0.001062524854 -0.0001173869096 )
( 0.01635583118 -0.0008907577721 -9.026116459e-05 )
( 0.01632167399 -0.0002515725209 -0.0001097622007 )
( 0.01636238396 -0.0006179361371 -0.0001093091414 )
( 0.01616128348 -0.0005154248211 -0.0001179096289 )
( 0.01634790376 -0.0007404102944 -0.0001007444225 )
( 0.01414110884 -0.001343948534 -0.0001435561717 )
( 0.01415984984 -0.001454374753 -0.0001386707299 )
( 0.02127197757 0.000577415165 2.216053144e-05 )
( 0.03044883348 -0.0003217044869 1.96219371e-05 )
( 0.03017378226 -0.0002973833762 3.018424104e-05 )
( 0.03013288602 -0.0002875282953 2.958550976e-05 )
( 0.02946124412 -0.0002557259868 3.285548155e-05 )
( 0.02940710075 -0.0002477689704 3.214760363e-05 )
( 0.0306362249 -0.0003596549213 6.692513125e-06 )
( 0.03055402637 -0.0003769598261 4.335920039e-06 )
( 0.02864112146 -0.0002215624263 2.722939826e-05 )
( 0.02857952006 -0.0002145363978 2.667133958e-05 )
( 0.02708800323 -0.0001714546379 1.13666556e-05 )
( 0.02701495588 -0.0001658664114 1.123993388e-05 )
( 0.03031631745 -0.0003821045975 1.043734028e-05 )
( 0.02997174114 -0.0003699743829 1.877396426e-05 )
( 0.02954994142 -0.0003382500727 3.051993917e-05 )
( 0.02906650491 -0.0002872603072 4.91330793e-05 )
( 0.0285131447 -0.0002183939941 7.351455861e-05 )
( 0.0278583765 -0.0001341701427 9.990152466e-05 )
( 0.02707479894 -3.72853101e-05 0.000125697974 )
( 0.02528499998 -0.000130719447 1.927307039e-06 )
( 0.02520326152 -0.0001264883904 1.952219691e-06 )
( 0.02614853345 7.333022222e-05 0.0001443459332 )
( 0.02506231144 0.0001983529219 0.0001366240322 )
( 0.02385101467 0.0003560077457 0.0001069364371 )
( 0.02259900421 0.0005745316157 6.537814625e-05 )
( 0.01412352454 -0.00122245797 -0.000140559292 )
( 0.01411413681 -0.001080766786 -0.0001348816004 )
( 0.01518162806 -0.0009101092 -0.0001201240084 )
( 0.01508728322 -0.0002634213306 -0.0001152232071 )
( 0.01526021864 -0.0006340964464 -0.0001296495902 )
( 0.01509422343 -0.0005315283779 -0.0001304018224 )
( 0.01521595381 -0.0007539032958 -0.0001259878045 )
( 0.02130629309 0.0008736446034 2.579207649e-05 )
( 0.03007967398 -0.0002728494292 2.884688365e-05 )
( 0.03004134819 -0.000261816429 2.822788701e-05 )
( 0.03036525473 -0.0002903020359 1.885919846e-05 )
( 0.02935379557 -0.0002367205016 3.16561418e-05 )
( 0.02930177376 -0.0002274998551 3.093388659e-05 )
( 0.02851931937 -0.0002067372843 2.609727744e-05 )
( 0.02845999599 -0.0001983583061 2.558998494e-05 )
( 0.03056018241 -0.0003196568578 7.525379715e-06 )
( 0.03048483841 -0.0003275386989 6.868261153e-06 )
( 0.02694275975 -0.0001599166426 1.109165714e-05 )
( 0.02687159181 -0.0001535612973 1.090404385e-05 )
( 0.02512247115 -0.0001219610713 1.91885465e-06 )
( 0.02504315414 -0.0001171073964 1.895388664e-06 )
( 0.03025498614 -0.0003216968034 1.369193433e-05 )
( 0.02992013656 -0.0002968826157 2.145002873e-05 )
( 0.02950651385 -0.0002513885265 3.214852404e-05 )
( 0.02902913094 -0.0001861268684 5.015953866e-05 )
( 0.02847853303 -0.0001026125683 7.422202907e-05 )
( 0.02782273851 -3.78810546e-06 0.0001018178082 )
( 0.0270357132 0.0001090479418 0.0001321608579 )
( 0.01625631563 -3.00757074e-05 -8.170060937e-06 )
( 0.01618837751 -2.813862557e-05 -8.112609976e-06 )
( 0.02610643581 0.0002381196246 0.00015221996 )
( 0.02502537146 0.0003862535232 0.0001437330357 )
( 0.02384529263 0.000577423838 0.0001098315843 )
( 0.02263362147 0.0008390574949 6.489811494e-05 )
( 0.01412999164 -0.0009190576384 -0.0001353088592 )
( 0.01408323552 -0.000533325132 -0.000131368608 )
( 0.0142242508 -0.0006372715579 -0.0001351542305 )
( 0.01417637151 -0.0007564491243 -0.000136637158 )
( 0.02137974836 0.001183428569 3.056662536e-05 )
( 0.0292509757 -0.0002154454996 3.023647332e-05 )
( 0.02920195088 -0.0002050044131 2.946979839e-05 )
( 0.02999168821 -0.0002454687492 2.747860162e-05 )
( 0.03028763086 -0.0002557733387 1.819953468e-05 )
( 0.02995542996 -0.0002333165612 2.683817002e-05 )
( 0.02840149775 -0.0001891182328 2.535761269e-05 )
( 0.02834474854 -0.0001798534795 2.477008638e-05 )
( 0.02680225298 -0.0001469341514 1.045553199e-05 )
( 0.02654999122 -0.0001371753606 3.427001866e-05 )
( 0.03049109876 -0.0002760632779 8.691231415e-06 )
( 0.03042320721 -0.0002741159988 9.656437214e-06 )
( 0.02496529371 -0.0001120151792 1.778021215e-06 )
( 0.0248891525 -0.0001066553377 1.615623091e-06 )
( 0.01612388156 -2.614377081e-05 -8.039752174e-06 )
( 0.01606263965 -2.407738248e-05 -7.935172107e-06 )
( 0.03020332009 -0.0002568189229 1.680865535e-05 )
( 0.02987814695 -0.0002190801315 2.377484452e-05 )
( 0.02947351709 -0.0001598851086 3.353346619e-05 )
( 0.02900288254 -8.04104784e-05 5.107052857e-05 )
( 0.02845516428 1.767830872e-05 7.513174205e-05 )
( 0.02779862657 0.0001312039531 0.0001050399005 )
( 0.02701095492 0.0002604424662 0.0001390884863 )
( 0.00995511096 -8.588615856e-06 -5.17261924e-06 )
( 0.009913086891 -7.821907275e-06 -5.116758985e-06 )
( 0.02608263493 0.0004088616406 0.000159895586 )
( 0.02501568012 0.0005831730086 0.0001500265644 )
( 0.0238746684 0.0008107951144 0.0001101060916 )
( 0.02270294726 0.001113709062 6.505219062e-05 )
( 0.0214979127 0.001503649168 3.546945663e-05 )
( 0.02828936838 -0.0001698895794 2.415154813e-05 )
( 0.02823613584 -0.0001596928341 2.35054049e-05 )
( 0.02915426344 -0.0001918931666 2.873063386e-05 )
( 0.03021708876 -0.0002183155302 1.768014954e-05 )
( 0.02990923822 -0.0002153910755 2.60881061e-05 )
( 0.02987617068 -0.0002021894034 2.543319169e-05 )
( 0.02910795063 -0.0001802528714 2.791928819e-05 )
( 0.02666187845 -0.0001324670156 3.687651042e-05 )
( 0.02658615448 -0.0001239837584 4.998489021e-05 )
( 0.02481504902 -0.0001010154374 1.484878567e-06 )
( 0.0248346366 -9.621908976e-05 0.0001009777698 )
( 0.03042948805 -0.0002291256096 1.018445164e-05 )
( 0.03037091717 -0.0002169516956 1.256804626e-05 )
( 0.01600491628 -2.19659305e-05 -7.898694093e-06 )
( 0.01595058478 -1.981875539e-05 -7.875742085e-06 )
( 0.009874386713 -7.04386639e-06 -5.023960512e-06 )
( 0.009838564321 -6.243541065e-06 -4.944565262e-06 )
( 0.03016124107 -0.0001878298644 1.963260183e-05 )
( 0.02984689921 -0.0001371285034 2.567272168e-05 )
( 0.0294516664 -6.44310785e-05 3.465793634e-05 )
( 0.02898821235 2.91749202e-05 5.200572923e-05 )
( 0.02844360471 0.0001415998704 7.669891056e-05 )
( 0.02778773941 0.000269773067 0.0001095602056 )
( 0.02700267732 0.000416024297 0.000146137696 )
( 0.005117340013 -2.324825346e-06 2.378315457e-06 )
( 0.005096132401 -2.095290938e-06 2.419683142e-06 )
( 0.02608114481 0.0005849714507 0.0001676152751 )
( 0.0250364393 0.0007874622243 0.0001542387326 )
( 0.02393879741 0.001051198924 0.0001085904078 )
( 0.02281303518 0.00139425986 6.67833956e-05 )
( 0.0216698125 0.001831892645 4.244671436e-05 )
( 0.02653425932 -0.000116922165 4.964712571e-05 )
( 0.02648052014 -0.0001078679779 9.022672202e-06 )
( 0.02818455733 -0.0001488355047 2.283318281e-05 )
( 0.02983401716 -0.0001827890519 2.469601895e-05 )
( 0.02980413288 -0.0001686166797 2.403118742e-05 )
( 0.03015410155 -0.0001781603787 1.73386743e-05 )
( 0.02906411886 -0.0001662094 2.714543007e-05 )
( 0.02902196348 -0.0001535131014 2.630070958e-05 )
( 0.02813436091 -0.0001376981818 2.212545587e-05 )
( 0.02390567586 -8.241224714e-05 0.0001168357994 )
( 0.02474730089 -8.382020314e-05 0.0001735817204 )
( 0.01590126194 -1.754669756e-05 -7.878640645e-06 )
( 0.01773296483 -2.819682959e-05 7.893925067e-05 )
( 0.03037671745 -0.0001791138493 1.196547419e-05 )
( 0.03032787517 -0.0001563519036 1.545500709e-05 )
( 0.009717581794 -5.35705658e-06 -5.849172794e-06 )
( 0.009688692167 -4.555321539e-06 -5.786008842e-06 )
( 0.005077107809 -1.864839305e-06 2.476271902e-06 )
( 0.004985474516 -1.565315415e-06 1.694684215e-06 )
( 0.03012981266 -0.0001152117329 2.203663644e-05 )
( 0.02982685901 -5.170418444e-05 2.709516775e-05 )
( 0.02944154665 3.426009062e-05 3.561775884e-05 )
( 0.02898570336 0.0001418164757 5.320863056e-05 )
( 0.02844490856 0.0002680942707 7.930301217e-05 )
( 0.02779182605 0.0004108712601 0.0001151287433 )
( 0.02701350674 0.0005745860981 0.0001534339826 )
( 0.002566853538 -1.055255098e-06 9.586970009e-06 )
( 0.002556258114 -9.701498129e-07 9.627783584e-06 )
( 0.02610368095 0.0007644644938 0.0001748719806 )
( 0.0250911694 0.0009964830242 0.0001555782364 )
( 0.02404003032 0.001294218237 0.0001070072176 )
( 0.02297061682 0.001676623477 7.182741683e-05 )
( 0.02190619335 0.002162289107 4.792298205e-05 )
( 0.02451721206 -7.680725685e-05 0.0001217617682 )
( 0.02448131144 -6.907920761e-05 9.100283478e-07 )
( 0.02642259747 -9.912954556e-05 8.612808415e-06 )
( 0.02898155898 -0.0001385464275 2.54766619e-05 )
( 0.02894357964 -0.0001249416819 2.438902084e-05 )
( 0.02976662479 -0.0001478644117 2.332282747e-05 )
( 0.02974033356 -0.0001328113431 2.266499905e-05 )
( 0.03009996749 -0.000135565555 1.720875116e-05 )
( 0.0280874446 -0.0001261237921 2.134625538e-05 )
( 0.02804201655 -0.0001142387919 2.066083835e-05 )
( 0.02636738308 -9.010768554e-05 8.174502e-06 )
( 0.01309068128 -7.733109669e-06 5.824350592e-05 )
( 0.0158675462 -1.678953231e-05 4.79764858e-05 )
( 0.009663430043 -3.711005775e-06 -5.832499482e-06 )
( 0.01190130692 -8.674775927e-06 4.688016998e-05 )
( 0.03033298999 -0.0001263241429 1.395941945e-05 )
( 0.0302953627 -9.270023293e-05 1.815265932e-05 )
( 0.004617293831 -1.066263053e-06 -3.1173754e-06 )
( 0.004605789203 -8.611207818e-07 -3.066434374e-06 )
( 0.00254680519 -8.805033076e-07 9.662036064e-06 )
( 0.00239214371 -6.941927495e-07 7.138094588e-06 )
( 0.03010948189 -3.956708315e-05 2.392064562e-05 )
( 0.02981861308 3.645792822e-05 2.808222052e-05 )
( 0.02944389731 0.0001354443957 3.6601592e-05 )
( 0.02899623662 0.0002565061732 5.497495658e-05 )
( 0.02846008353 0.0003958549642 8.314034494e-05 )
( 0.02781286649 0.0005532561336 0.0001215451557 )
( 0.0270442944 0.000734319794 0.000160996773 )
( 0.02615216002 0.0009460375877 0.0001804299827 )
( 0.02517969906 0.001205868088 0.0001544691913 )
( 0.02417988516 0.001534786541 0.0001075897089 )
( 0.02318312228 0.001953992527 8.07400138e-05 )
( 0.02221868932 0.00248443638 4.176515358e-05 )
( 0.01444582082 -7.71987925e-06 0.0001476968755 )
( 0.01505231299 -5.55806082e-06 6.616346582e-06 )
( 0.02442344278 -6.209714775e-05 7.326051445e-07 )
( 0.02799893171 -0.0001019079136 1.969511322e-05 )
( 0.02795872092 -8.94551049e-05 1.86674115e-05 )
( 0.02890774235 -0.0001090799997 2.37114491e-05 )
( 0.02970785089 -0.0001108428114 2.201096686e-05 )
( 0.02887417749 -9.443167073e-05 2.277495696e-05 )
( 0.03005473502 -9.092579421e-05 1.731114753e-05 )
( 0.02968523093 -9.515332204e-05 2.137831689e-05 )
( 0.02631519735 -8.088608593e-05 7.579884368e-06 )
( 0.02626534179 -7.142260438e-05 6.924919489e-06 )
( 0.02436839975 -5.494666766e-05 5.407690651e-07 )
( 0.008764849044 -2.710154149e-06 4.198842362e-05 )
( 0.01101565734 -2.800953098e-06 2.166462764e-06 )
( 0.004596292507 -6.564582122e-07 -3.077550673e-06 )
( 0.006573884748 -1.655368351e-06 2.168034007e-05 )
( 0.03029930964 -7.108338468e-05 1.604442514e-05 )
( 0.03027358651 -2.648645932e-05 2.049889736e-05 )
( 0.001859543379 -2.528033747e-07 -1.378911065e-06 )
( 0.001855620998 -2.112566193e-07 -1.353741141e-06 )
( 0.03010099009 3.8432976e-05 2.52408081e-05 )
( 0.02982247807 0.0001266127074 2.876953295e-05 )
( 0.02945943177 0.0002382523817 3.78379118e-05 )
( 0.0290202722 0.0003719230008 5.756679457e-05 )
( 0.0284905117 0.0005234999117 8.8241919e-05 )
( 0.02785175852 0.0006953471457 0.0001286109182 )
( 0.02709639817 0.0008933125646 0.0001682909788 )
( 0.02622961998 0.001125550945 0.0001831302943 )
( 0.02530118637 0.001409747172 0.0001529081637 )
( 0.02436666749 0.0017661202 0.0001126018906 )
( 0.02345725708 0.002217086963 8.792368317e-05 )
( 0.02261746116 0.002781203482 1.82528911e-05 )
( 0.01005291101 -3.286613946e-06 8.474956849e-05 )
( 0.009066455066 5.305266768e-07 1.853197136e-05 )
( 0.0156822037 -3.584445494e-06 6.478565865e-06 )
( 0.02621844783 -6.165004015e-05 6.498756193e-06 )
( 0.02792039327 -7.616249786e-05 1.82123058e-05 )
( 0.02617502958 -5.167329437e-05 6.018891327e-06 )
( 0.02884314395 -7.806337817e-05 2.176072667e-05 )
( 0.02788478136 -6.296582433e-05 1.732656165e-05 )
( 0.03001931682 -4.439881013e-05 1.789669477e-05 )
( 0.02964023873 -5.574015449e-05 2.040422623e-05 )
( 0.029658176 -7.224512956e-05 2.081174352e-05 )
( 0.02881441638 -6.25365501e-05 2.080126251e-05 )
( 0.024317123 -4.764298137e-05 3.38581799e-07 )
( 0.02426919341 -4.024853115e-05 -4.523508323e-08 )
( 0.01566591486 -1.206398565e-06 -6.822330761e-06 )
( 0.004149811342 -3.824469559e-07 1.79176368e-05 )
( 0.00621969346 -8.556144167e-07 -1.944490032e-05 )
( 0.001852694084 -1.702550918e-07 -1.331510816e-06 )
( 0.003344841767 -3.065149485e-07 8.733240975e-06 )
( 0.03027635626 -1.378739944e-05 1.807377703e-05 )
( 0.03026347235 4.170091051e-05 2.236548062e-05 )
( 0.03010459989 0.0001180616237 2.602895802e-05 )
( 0.0298392158 0.0002179456933 2.936241071e-05 )
( 0.02948842198 0.0003415773972 3.95095085e-05 )
( 0.02905843779 0.0004865404335 6.119918544e-05 )
( 0.02853669226 0.0006496014539 9.452008817e-05 )
( 0.02791003883 0.0008351545548 0.0001359636371 )
( 0.02717314661 0.001048180507 0.0001740106527 )
( 0.02633648366 0.001298317686 0.0001834202121 )
( 0.02546362951 0.001601762604 0.0001538932411 )
( 0.02460496128 0.001980957342 0.0001207939786 )
( 0.0237972904 0.002451496664 8.590535435e-05 )
( 0.023107538 0.003028089181 -2.059648432e-05 )
( 0.003412181046 1.144720656e-07 4.502717638e-05 )
( 0.004128929693 3.803290838e-07 9.390478226e-06 )
( 0.009571303613 1.444357963e-06 3.533635754e-05 )
( 0.02422470786 -3.262428436e-05 -1.984529945e-07 )
( 0.02613449097 -4.156559226e-05 5.368184247e-06 )
( 0.02418415621 -2.494767796e-05 -5.195091717e-07 )
( 0.02785265259 -4.949451613e-05 1.610186882e-05 )
( 0.02609707974 -3.12677148e-05 4.747050298e-06 )
( 0.02961897291 -3.189746712e-05 2.025365393e-05 )
( 0.02960499376 -1.500155486e-05 1.993196929e-05 )
( 0.02999431454 3.689076493e-06 1.842051279e-05 )
( 0.02876574732 -2.94227375e-05 1.892192813e-05 )
( 0.02878871374 -4.58180366e-05 1.972777864e-05 )
( 0.0278229937 -3.571899651e-05 1.509835056e-05 )
( 0.01564969867 1.179691253e-06 -6.870746347e-06 )
( 0.01563781314 3.565756288e-06 -6.894565558e-06 )
( 0.009584030136 2.210833372e-06 -4.661482308e-06 )
( 0.002255961066 -1.109236791e-07 1.04439041e-05 )
( 0.003371943953 -1.351087917e-07 -1.326208258e-05 )
( 0.03026467934 4.506868936e-05 1.988955773e-05 )
( 0.0302654691 0.0001112029422 2.367276466e-05 )
( 0.03012083471 0.0001985404961 2.639182094e-05 )
( 0.02986920625 0.0003095252032 3.005473991e-05 )
( 0.02953089029 0.0004440481716 4.176565926e-05 )
( 0.02911086753 0.0005988388439 6.605205272e-05 )
( 0.02860049158 0.000772569445 0.0001016660681 )
( 0.02798945829 0.0009700572118 0.0001427066891 )
( 0.02727421373 0.001195547055 0.0001773876575 )
( 0.0264768824 0.001458706101 0.0001834790019 )
( 0.0256685596 0.001776194898 0.0001585287682 )
( 0.02489502542 0.002167686354 0.0001273971429 )
( 0.0242036134 0.002638765378 7.128025027e-05 )
( 0.02368198894 0.003191204276 -6.873212988e-05 )
( 0.001864953083 2.43986733e-08 3.099050082e-05 )
( 0.002031116979 6.632188132e-08 8.314784282e-06 )
( 0.004573170096 6.300220434e-07 2.885202048e-05 )
( 0.01563079096 5.959674581e-06 -6.590561497e-06 )
( 0.0241476316 -1.722180605e-05 -9.551740732e-07 )
( 0.01562819444 8.359015737e-06 -6.311451216e-06 )
( 0.02606369928 -2.077481622e-05 4.231597813e-06 )
( 0.02411482297 -9.320871868e-06 -1.268943038e-06 )
( 0.02874515578 -1.230492853e-05 1.857513416e-05 )
( 0.02872778662 4.420789992e-06 1.756728307e-05 )
( 0.02958962321 9.603992112e-06 1.962545139e-05 )
( 0.02998080477 5.284538929e-05 1.907192018e-05 )
( 0.02958050184 2.699084325e-05 1.927021185e-05 )
( 0.02777294815 -7.587847449e-06 1.359772705e-05 )
( 0.02779686265 -2.18066798e-05 1.399734356e-05 )
( 0.02603380382 -1.025517031e-05 3.396769216e-06 )
( 0.009586952627 3.051117574e-06 -4.677024663e-06 )
( 0.009589943103 3.485705975e-06 -4.813894066e-06 )
( 0.004588577896 8.122844974e-07 -2.481054935e-06 )
( 0.03026456945 0.0001049089333 2.135318937e-05 )
( 0.03027997911 0.0001813062845 2.438999036e-05 )
( 0.03014980629 0.0002790069557 2.650456008e-05 )
( 0.02991228551 0.0004002346832 3.099218156e-05 )