/*--------------------------------*- C++ -*----------------------------------*\
  =========                 |
  \\      /  F ield         | OpenFOAM: The Open Source CFD Toolbox
   \\    /   O peration     | Website:  https://openfoam.org
    \\  /    A nd           | Version:  8
     \\/     M anipulation  |
\*---------------------------------------------------------------------------*/






FoamFile
{
    version     2.0;
    format      ascii;
    class       volScalarField;
    location    "0";
    object      V;
}
// * * * * * * * * * * * * * * * * * * * * * * * * * * * * * * * * * * * * * //

dimensions      [0 3 0 0 0 0 0];


internalField   nonuniform List<scalar> 
13630
(
0.001006106328
0.001083293133
0.00100615292
0.001145022728
0.001083325069
0.001006244061
0.001153080798
0.001145045891
0.001083389098
0.001006431225
0.001156597321
0.001153119403
0.001145091525
0.001083519788
0.001006816198
0.001155366643
0.001156647268
0.001153188897
0.00114517905
0.001083785491
0.001007585774
0.001155422763
0.001149212536
0.001156733017
0.001153313717
0.001145345081
0.001084313769
0.001009055596
0.001149269678
0.001155515617
0.001138013495
0.001156879825
0.001153535391
0.001145657714
0.001085325159
0.001011709454
0.001138067332
0.001149361058
0.001155668049
0.001121742251
0.001157126998
0.001153921827
0.001146235953
0.001087166663
0.00101620913
0.001121789791
0.001138150675
0.001149505355
0.001155912795
0.001100516549
0.001157532199
0.001154576236
0.001147268427
0.001090327271
0.001023352263
0.001100556208
0.001121861119
0.001138277613
0.001149727264
0.001156293132
0.001074655012
0.001158172186
0.001155638004
0.00114901685
0.001095411507
0.001004727542
0.001034007707
0.001074686434
0.001100614021
0.001121966212
0.001138465305
0.001150056154
0.001156859305
0.001044728851
0.001159133787
0.001157261554
0.001151771735
0.00110303045
0.0003855376884
0.0003868992003
0.001014514649
0.001049114372
0.001044752585
0.001074731034
0.001100696606
0.001122116207
0.001138732196
0.001150521627
0.001157657516
0.001011599088
0.001160486805
0.001159549176
0.001155693963
0.00111355893
0.0003764208875
0.0003780495306
0.00038897124
0.001028408362
0.0003908874623
0.001071587178
0.001011616131
0.001044785386
0.001074792977
0.001100810846
0.001122321922
0.001139094147
0.00115114477
0.001158709427
0.000976428422
0.001162232952
0.001162403775
0.001160257299
0.001124136399
0.0003675315412
0.0003692417274
0.0003800087222
0.001047169569
0.0003960197736
0.0003937962632
0.0003823930555
0.001084871972
0.00101163906
0.0009764399997
0.001044829847
0.001074876356
0.001100962654
0.001122591099
0.001139558996
0.001151926533
0.001159988314
0.0009406494357
0.001164257834
0.001165451909
0.001164371031
0.001132134586
0.0003589981419
0.0003608133496
0.0003713637544
0.0003997261403
0.0004010827913
0.001102208704
0.0003881009867
0.0003850667621
0.0003739140886
0.001094512752
0.001011669542
0.0009764550855
0.0009406568686
0.001044888291
0.00107498414
0.001101155339
0.001122925301
0.0011401207
0.001152838461
0.001161408042
0.0003500755121
0.0003500763417
0.001166336533
0.001168155153
0.001166906173
0.001137253914
0.0003510104319
0.0003630850766
0.0003529266271
0.0003910218281
0.0003932294435
0.0003998201519
0.001063706481
0.0003786061417
0.0003802489843
0.0003769005102
0.000365858267
0.00110030595
0.0009764748284
0.001011708906
0.0009406659016
0.0003500767182
0.0003500780371
0.00104496211
0.001075117311
0.001101387754
0.001123317077
0.001140756098
0.001153822958
0.00116284274
0.0003343428777
0.0003343431535
0.001168222556
0.001170024464
0.001165221309
0.001142405218
0.0003436997988
0.0003553483664
0.0003457067888
0.0003838496613
0.0003877137207
0.000393395765
0.001101982447
0.001165688019
0.000387772286
0.0003729852824
0.0003691554071
0.0003583366738
0.001119059083
0.0009406775625
0.0009765001728
0.001011757736
0.0003500780979
0.0003500800145
0.0003343436173
0.0003343440771
0.001045051125
0.001075273773
0.001101652953
0.001123748852
0.001141426906
0.001154807645
0.001164186114
0.0003210728075
0.0003210729232
0.001169887658
0.001171933917
0.001167149261
0.00114380549
0.0003482610579
0.0003773993229
0.0003826698428
0.0003927747746
0.001063931468
0.0003881829459
0.0003780603635
0.0004131137261
0.0003662019447
0.0003619403294
0.0003514351194
0.00112757521
0.0009406929674
0.0003500796847
0.000350082475
0.0009765314678
0.001011815435
0.0003343446885
0.0003343451069
0.0003210732506
0.0003210737166
0.001045153044
0.001075447569
0.001101937747
0.001124194095
0.001142085951
0.001155724623
0.001165397196
0.000315015843
0.0003150157734
0.001171631757
0.001177191151
0.001168943242
0.001139183675
0.0003711738189
0.0003768985237
0.0003900479269
0.001099943194
0.0003926775418
0.0003976228047
0.0003924990831
0.0003598479807
0.0003552866072
0.0011320533
0.0009407126555
0.0003500818618
0.0003500858173
0.0003343457641
0.0003343461786
0.0009765680742
0.001011879803
0.0003210741558
0.0003210745219
0.0003150159284
0.000315016156
0.00104526291
0.001075628703
0.00110222318
0.001124620036
0.001142683429
0.001156513551
0.001166424844
0.0003220337006
0.0003220338651
0.001173210768
0.001178578164
0.001169321572
0.001143914951
0.0003650939716
0.0003707854067
0.0003823248323
0.001038656066
0.0003918112626
0.000399558812
0.0003869636506
0.001134275298
0.0003500849229
0.0003500900373
0.0009407360796
0.0003343470863
0.000334347744
0.0003210747209
0.000321074892
0.0009766080439
0.001011946715
0.0003150164628
0.0003150162958
0.0003220321825
0.0003220324253
0.001045373012
0.001075803313
0.001102485911
0.001124990783
0.00114317119
0.001157117815
0.001167148916
0.0001699845833
0.0001699855619
0.0011735952
0.001180637971
0.00116406291
0.001146859882
0.0003766179888
0.000395889087
0.0003890977079
0.0003825618847
0.00113406704
0.0003343490228
0.0003343497185
0.0003500885693
0.0009407616123
0.0003500946621
0.0003210751549
0.0003210756639
0.0003150156809
0.0003150148201
0.0009766477932
0.00101201
0.0003220320198
0.0003220309298
0.0001699839041
0.0001699850213
0.001045472911
0.001075954406
0.001102699908
0.001125270455
0.001143507789
0.001157511683
0.001167698328
8.972614223e-05
8.972694159e-05
0.001175005062
0.001179818829
0.001156460107
0.00114567146
0.001131517818
0.000321076282
0.0003210768355
0.0003343509371
0.0009407861619
0.0003500924087
0.0003500993246
0.0003343512695
0.0003150140139
0.000315013795
0.0003220274863
0.0003220240132
0.0009766821611
0.001012061539
0.0001699852683
0.0001699852102
8.972588979e-05
8.972678497e-05
0.00104554992
0.001076062736
0.001102837864
0.001125422937
0.001143645934
0.001157611362
0.001167878969
4.736189981e-05
4.736242061e-05
0.001177993351
0.001177217306
0.001154292425
0.001143288757
0.001127351538
0.000315014147
0.0003150143119
0.0003210768945
0.0003500960701
0.0003501031147
0.0009408049873
0.0003343523679
0.0003343525974
0.0003210765507
0.000322021143
0.000322017609
0.0001699825075
0.0001699801498
0.0009767044639
0.001012091539
8.972706633e-05
8.972719593e-05
4.73618304e-05
4.736240633e-05
0.001045589544
0.001076107715
0.001102871404
0.001125406738
0.001143496435
0.00115705272
0.001165390635
2.499997575e-05
2.500029e-05
0.001179223909
0.001169152408
0.001153717427
0.001139847416
0.001122016889
0.0003220181078
0.0003220193945
0.0003150136517
0.0003343537574
0.0003343535479
0.0003500981769
0.0003501041213
0.0009408119623
0.0003210758982
0.0003210757568
0.0003150115174
0.0001699786704
0.0001699756581
8.972554127e-05
8.972417379e-05
0.0009767067761
0.001012088847
4.736261028e-05
4.73627338e-05
2.49999785e-05
2.5000318e-05
0.001045576281
0.001076068241
0.001102771776
0.00112518053
0.00114300653
0.001155975884
0.001162734227
0.001177121023
0.001161701077
0.001149545185
0.001135277796
0.001116186293
0.0001699777461
0.0001699811739
0.0003220152734
0.0003210757828
0.0003210758738
0.0003343537722
0.0003500968406
0.0003343520286
0.0009408002262
0.0003501003555
0.0003150089488
0.0003150064942
0.0003220117462
8.97234292e-05
8.972155435e-05
4.736180239e-05
4.736105351e-05
0.000976680387
0.001012041599
2.500044825e-05
2.50005345e-05
0.001045494359
0.001075923307
0.001102510182
0.00112470531
0.001142149412
0.001154535409
0.001162489857
0.001174235294
0.001155531291
0.001145287882
0.001130500849
0.001110297216
8.972321998e-05
8.972586969e-05
0.0001699779819
0.0003150079574
0.0003210747719
0.0003150076748
0.0003343505124
0.0003210728018
0.0009407629738
0.0003500897649
0.0003500903153
0.0003343468042
0.0003220037252
0.0003219978912
0.0001699772769
4.73606877e-05
4.73596432e-05
2.50000325e-05
2.49996355e-05
0.0009766160811
0.001011937994
0.001045328558
0.001075651942
0.00110205452
0.001123928122
0.001140853045
0.001152924777
0.001166208354
0.001170468035
0.001150397991
0.001141437397
0.001126200542
0.001106140339
4.736071283e-05
4.736238065e-05
8.97239808e-05
0.00032199127
0.000315006548
0.0003220162117
0.0003210698442
0.0003150025137
0.0003500768258
0.0003500703909
0.000940693275
0.0003343366823
0.0003343429769
0.0003210665527
0.0001699707983
0.0001699674303
8.972401212e-05
2.49994555e-05
2.499889925e-05
0.0009765047902
0.001011767315
0.001045064977
0.001075232687
0.001101363398
0.0011227454
0.001138712479
0.001148181929
0.001167060281
0.001161523328
0.001149930736
0.001138315713
0.001122766993
0.00110374286
2.499953275e-05
2.500050925e-05
4.736136533e-05
0.0001699585682
0.0003219934747
0.0001699961686
0.0003149994846
0.0003219854089
0.0003343296558
0.0003343200892
0.0003500546886
0.0009405838269
0.0003500406299
0.0003210572626
0.0003210624021
0.0003149950585
8.972006078e-05
8.971831523e-05
4.736153993e-05
0.0009763389817
0.001011521458
0.0010446928
0.001074646991
0.001100404701
0.001121134596
0.001135979705
0.001142449092
0.001164507093
0.001155146516
0.001146568683
0.0011353523
0.001120000821
0.001099426187
2.4999991e-05
8.971228671e-05
0.0001699677118
8.973910167e-05
0.0003219948984
0.0001699612284
0.0003210503613
0.0003210419144
0.0003343093858
0.0009404283508
0.0003500220023
0.0003499979603
0.0003342965702
0.0003149849079
0.000314990639
0.0003219915305
4.73593496e-05
4.735849126e-05
2.50001485e-05
0.0009761145769
0.001011197275
0.001044207562
0.001073886676
0.001099174959
0.001119159445
0.001133038631
0.001141581512
0.001162152778
0.001150109378
0.001143904828
0.001133176408
0.001119101227
0.001104237124
4.735501285e-05
8.971962174e-05
4.737119494e-05
0.0001699768104
8.971567097e-05
0.0003149777572
0.0003149676187
0.000321032366
0.0009402247507
0.0003499754282
0.0003499391679
0.0003342815495
0.0003342637714
0.0003210224332
0.0003219675149
0.0003219634999
0.000169978576
2.499899075e-05
2.499858625e-05
0.0009758334509
0.001010799616
0.001043615263
0.001072957478
0.001097680592
0.001116820933
0.001130187511
0.001146582936
0.001159943307
0.001147387192
0.001141990867
0.001131728799
0.001120198437
0.001115819671
2.499670525e-05
4.73597405e-05
2.500585925e-05
8.972693463e-05
4.73575557e-05
0.0003219624055
0.0003219364128
0.0003149569102
0.0009399781197
0.0003499126707
0.0003498639344
0.0003342415296
0.0003342162274
0.0003210114337
0.0003209978542
0.0003149473997
0.0001699637827
0.0001699485873
8.972899152e-05
0.0009755064689
0.001010344882
0.001042935992
0.001071875621
0.001095879408
0.001113624002
0.001122991079
0.001149880222
0.001154527744
0.001147902436
0.00114019624
0.001129926577
0.001119560129
0.001113985492
2.49995215e-05
4.736439817e-05
2.4998365e-05
0.0001699658851
0.0001699421614
0.0003219204025
0.0009397026874
0.0003498350028
0.0003497753956
0.0003341854912
0.0003341531058
0.0003209800606
0.0003209575275
0.0003149413867
0.0003149322447
0.0003219140244
8.972098069e-05
8.970911715e-05
4.736586901e-05
0.0009751566891
0.001009865432
0.001042211943
0.001070698423
0.001093890314
0.001110188781
0.001115705101
0.001147998073
0.001150319813
0.001145383711
0.001137093981
0.001126073038
0.00111404142
2.50022535e-05
8.972360622e-05
8.970847052e-05
0.000169933455
0.0009394244173
0.0003497463195
0.0003496794826
0.0003341150931
0.0003340770173
0.000320931365
0.0003209018271
0.0003149160327
0.0003148923209
0.0003218969192
0.0003219148603
0.0001699370626
4.73617839e-05
4.735434578e-05
2.50031755e-05
0.0009748228778
0.001009414132
0.001041518021
0.001069555044
0.001092010566
0.001107285052
0.001115114008
0.001146547183
0.001147214706
0.001141683884
0.001132030755
0.001118791661
4.736368268e-05
4.735505894e-05
8.970402581e-05
0.0009391842813
0.0003496537978
0.0003495865937
0.0003340332635
0.0003339915516
0.0003208696079
0.0003208339894
0.0003148648219
0.0003148377446
0.0003218944337
0.0003218388626
0.0001699216758
0.0001699589526
8.970817828e-05
2.50011675e-05
2.49968585e-05
0.0009745613578
0.001009065965
0.001040962682
0.001068624756
0.001090546942
0.001105522189
0.001115463091
0.001145599136
0.001143344317
0.001136261229
0.001124273566
2.500236275e-05
2.4997681e-05
4.735287832e-05
0.0009390393828
0.0003495699646
0.0003495132739
0.000333945313
0.0003339043355
0.0003207958562
0.0003207551466
0.0003148068044
0.0003147720866
0.0003218164273
0.0003217851568
0.000169950832
0.0001699022075
8.969868042e-05
8.972659048e-05
4.735585428e-05
0.0009744443745
0.001008912611
0.001040670042
0.001068075946
0.001089737878
0.001105398432
0.001116434951
0.001144549427
0.001137807796
0.001128596294
2.499663825e-05
0.0009390602629
0.0003495138514
0.0003494825952
0.0003338617957
0.0003338290837
0.0003207133056
0.000320670786
0.0003147344079
0.0003146939965
0.0003217508797
0.0003217101793
0.0001699039393
0.00016989255
8.972357429e-05
8.969311681e-05
4.735066458e-05
4.736795095e-05
2.49985135e-05
0.0009745533204
0.00100905063
0.001040756437
0.001068021726
0.001089632643
0.001105821924
0.001117423465
0.001142257347
0.001130400634
0.0009393231556
0.0003495108468
0.0003495230274
0.0003337999877
0.0003337865221
0.000320630068
0.0003205924717
0.0003146514257
0.0003146068754
0.0003216641922
0.000321621722
0.0001698813668
0.0001698655981
8.969851688e-05
8.969476962e-05
4.736699365e-05
4.734988539e-05
2.499583475e-05
2.5005805e-05
0.0009749682352
0.001009571777
0.001041316168
0.001068465713
0.001089946586
0.001106119637
0.001117498989
0.001137004333
0.0009398973126
0.0003495908064
0.0003496653328
0.0003337841008
0.0003338039309
0.0003205613999
0.000320539106
0.0003145625997
0.0003145206651
0.000321571701
0.0003215188244
0.0001698458705
0.000169834364
8.969175622e-05
8.968611446e-05
4.735436064e-05
4.735345508e-05
2.500562325e-05
2.499646875e-05
0.000975758976
0.001010567614
0.001042407421
0.001069172347
0.001090087953
0.001105614368
0.001116105569
0.0009408284794
0.0003497841385
0.000349937172
0.0003338439846
0.000333912887
0.0003205298297
0.0003205367937
0.0003144829722
0.0003144522268
0.0003214640839
0.0003214139198
0.0001698149469
0.0001697942954
8.967818061e-05
8.96764763e-05
4.735317583e-05
4.735151745e-05
2.49994795e-05
2.4999536e-05
0.0009769897965
0.001012166588
0.001043999853
0.00106969686
0.001089477641
0.00110346188
0.0009421232903
0.0003501148467
0.0003503545389
0.0003340119084
0.0003341450442
0.0003205644833
0.0003206167432
0.0003144322677
0.0003144266735
0.000321366422
0.0003213200604
0.0001697713554
0.0001697533427
8.966961567e-05
8.966225481e-05
4.734866396e-05
4.734969335e-05
2.50000235e-05
2.49998195e-05
0.0009787640752
0.001014613034
0.001045537647
0.001069576465
0.001087631023
0.0009437488882
0.0003505888543
0.0003509091339
0.0003343167587
0.0003345238411
0.0003206979531
0.0003208120759
0.0003144388964
0.0003144725247
0.0003212841438
0.0003212651497
0.000169735881
0.0001697145192
8.965335911e-05
8.964777861e-05
4.734776936e-05
4.734566112e-05
2.499902225e-05
2.5000473e-05
0.0009814064509
0.001018446554
0.001046463851
0.001068517552
0.0009456806707
0.0003511757388
0.00035154924
0.0003347728463
0.0003350495319
0.0003209620469
0.0003211502664
0.0003145316365
0.0003146204538
0.0003212557583
0.0003212633728
0.0001696986064
0.0001696941649
8.964222026e-05
8.963325255e-05
4.734268404e-05
4.734166942e-05
2.50003325e-05
2.500013825e-05
0.0009859605156
0.001021173003
0.001046509535
0.0009483272591
0.0003517730001
0.0003521282562
0.0003353608815
0.0003356731061
0.0003213758133
0.0003216368162
0.0003147410924
0.0003148953957
0.0003212939666
0.0003213432904
0.0001696881057
0.0001696880484
8.96269893e-05
8.962725623e-05
4.734057134e-05
4.733724233e-05
2.4999481e-05
2.4999921e-05
0.0009983051296
0.001022651056
0.0009533642372
0.0003520490635
0.0003521347441
0.0003359884319
0.0003362145016
0.0003219244854
0.000322228637
0.0003150823175
0.0003152974902
0.0003214214398
0.0003215176847
0.0001696991851
0.0001697124574
8.962447307e-05
8.962361845e-05
4.73352058e-05
4.733663369e-05
2.500028075e-05
2.499931625e-05
0.0009993302624
0.001032362415
0.0003509783555
0.0003511195784
0.0003363152775
0.0003359782077
0.0003225247512
0.0003227821093
0.0003155311832
0.0003157675495
0.0003216339026
0.0003217628894
0.000169741826
0.0001697726804
8.962790861e-05
8.963057893e-05
4.733567027e-05
4.733515233e-05
2.499895625e-05
2.500036225e-05
0.0003258679947
0.0003173639965
0.0003349666107
0.0003303343719
0.0003229188357
0.0003227887944
0.0003159863492
0.0003161617531
0.0003218834214
0.0003219676564
0.0001698125385
0.000169861133
8.964135974e-05
8.965003482e-05
4.73368693e-05
4.7336658e-05
2.500019525e-05
2.4999991e-05
0.0003271872038
0.0003277076161
0.0003219484705
0.0003208546377
0.0003162669936
0.0003162597634
0.0003219828058
0.0003218858307
0.0001699077658
0.0001699433943
8.96624886e-05
8.967982882e-05
4.734028774e-05
4.734165858e-05
2.500069325e-05
2.4999913e-05
0.0003206105004
0.0003215810651
0.0003161854501
0.0003161489861
0.0003216387343
0.0003212603585
0.0001699657033
0.0001699725268
8.969706544e-05
8.971195307e-05
4.734446998e-05
4.734978698e-05
2.50008595e-05
2.500011775e-05
0.0003156099877
0.0003025797657
0.0003208366364
0.0003201624186
0.000169973955
0.0001700067288
8.972907132e-05
8.97554693e-05
4.735543441e-05
4.736143433e-05
2.49998285e-05
2.50007625e-05
0.0003190067477
0.000326008882
0.0001701441783
0.0001700725186
8.980801395e-05
8.991551062e-05
4.737266742e-05
4.739644965e-05
2.500204375e-05
2.500428675e-05
0.0001691470432
0.0001689803319
9.012037737e-05
9.018381851e-05
4.744656918e-05
4.754186404e-05
2.50112075e-05
2.50283545e-05
8.958340116e-05
8.808980242e-05
4.770356931e-05
4.777687366e-05
2.5065246e-05
2.513337775e-05
4.741614858e-05
4.606251881e-05
2.524247725e-05
2.529838725e-05
2.508912283e-05
2.4126003e-05
3.124808376e-06
3.125121126e-06
3.790492792e-06
3.790857817e-06
3.125227001e-06
4.597991736e-06
4.598413251e-06
3.790982062e-06
3.124714501e-06
5.577517939e-06
5.577997644e-06
4.598557418e-06
3.790386138e-06
3.125017001e-06
6.765720881e-06
6.766256328e-06
5.578162121e-06
4.597872406e-06
3.790738624e-06
3.125410751e-06
8.207059112e-06
8.207640122e-06
6.76644027e-06
5.577387598e-06
4.598278584e-06
3.791196865e-06
3.125238001e-06
9.95546539e-06
9.956067175e-06
8.207839738e-06
6.765582979e-06
5.577848102e-06
4.598805776e-06
3.79099461e-06
3.124749751e-06
1.207636261e-05
1.20769406e-05
9.956275225e-06
8.206920588e-06
6.766094934e-06
5.578445913e-06
4.598571675e-06
3.790424398e-06
3.124466251e-06
1.464911601e-05
1.464959409e-05
1.207714294e-05
9.955337809e-06
8.207473213e-06
6.766758421e-06
5.578178255e-06
4.59791244e-06
3.79009258e-06
3.125047126e-06
1.777000542e-05
1.777025576e-05
1.464976358e-05
1.207626565e-05
9.955906083e-06
8.208186816e-06
6.766457859e-06
5.577426869e-06
4.597528076e-06
3.790766797e-06
3.124912626e-06
1.799914963e-05
1.799923027e-05
1.777034864e-05
1.464908196e-05
1.207680555e-05
9.956639152e-06
8.207858709e-06
6.765617696e-06
5.576987539e-06
4.598301685e-06
3.790608856e-06
3.124767626e-06
1.98182526e-05
1.799928213e-05
1.981829655e-05
1.777008468e-05
1.464951751e-05
1.207750016e-05
9.956294152e-06
8.206944108e-06
6.765125276e-06
5.577861359e-06
4.598118258e-06
3.790438725e-06
3.125225126e-06
2.251691027e-05
1.799932851e-05
1.981834322e-05
2.251692854e-05
1.777028935e-05
1.465007246e-05
1.207715902e-05
9.955339392e-06
8.206407735e-06
6.766090386e-06
5.577651877e-06
4.597921079e-06
3.790969401e-06
3.125398751e-06
2.552007573e-05
1.799938521e-05
1.981838804e-05
2.251695144e-05
2.552006988e-05
1.777053969e-05
1.464977415e-05
1.207623004e-05
9.954778211e-06
8.207439409e-06
6.765856413e-06
5.57742652e-06
4.598529644e-06
3.791169843e-06
3.125258251e-06
7.509877513e-05
1.799943444e-05
1.981842977e-05
2.251697702e-05
2.552006841e-05
1.77703492e-05
1.464898446e-05
1.207568052e-05
9.955827157e-06
8.20718558e-06
6.765604425e-06
5.578114271e-06
4.598758428e-06
3.791003657e-06
3.124687751e-06
8.165576592e-05
7.509868918e-05
1.799938811e-05
1.981845231e-05
2.251700253e-05
2.55200795e-05
1.776988702e-05
1.46485134e-05
1.207665706e-05
9.955565205e-06
8.20691372e-06
6.76636583e-06
5.578371246e-06
4.598563827e-06
3.79033747e-06
3.124654751e-06
0.0002276981103
8.165571619e-05
7.509870232e-05
1.799926862e-05
1.981845191e-05
2.251702248e-05
2.552008721e-05
1.776960463e-05
1.464926228e-05
1.207640807e-05
9.9552852e-06
8.207730262e-06
6.766647772e-06
5.578145895e-06
4.597793881e-06
3.790297142e-06
3.125303751e-06
0.0002276982751
8.1655697e-05
7.509882019e-05
2.552011022e-05
1.799920491e-05
1.981843535e-05
2.251703839e-05
1.77698744e-05
1.464906359e-05
1.20761428e-05
9.956119904e-06
8.208029878e-06
6.76639066e-06
5.577268482e-06
4.597745151e-06
3.79105171e-06
3.125128626e-06
0.0002276990325
8.165585434e-05
7.509907709e-05
2.552016292e-05
2.552012731e-05
1.799920328e-05
1.981842947e-05
2.251705382e-05
1.776978791e-05
1.464885431e-05
1.207692918e-05
9.956422407e-06
8.207743258e-06
6.765410881e-06
5.577210941e-06
4.598612535e-06
3.790847538e-06
3.124742751e-06
8.16560217e-05
8.165639977e-05
0.0002277002735
7.50994371e-05
2.552020451e-05
2.552026199e-05
1.799923953e-05
1.981845136e-05
2.251708049e-05
1.776970177e-05
1.464947646e-05
1.207720769e-05
9.956113763e-06
8.206679341e-06
6.765343259e-06
5.57819202e-06
4.598377096e-06
3.790398668e-06
3.124972126e-06
8.165669562e-05
0.0002277016822
8.165716277e-05
7.509986416e-05
2.552041064e-05
2.552033057e-05
2.25171213e-05
1.799928437e-05
1.981849495e-05
1.776997016e-05
1.46496871e-05
1.207689125e-05
9.955006164e-06
8.206600928e-06
6.76642981e-06
5.577925275e-06
4.597861053e-06
3.790666287e-06
3.125381126e-06
8.165745627e-05
0.0002277030732
8.16578621e-05
7.510028906e-05
2.552048753e-05
2.55205645e-05
2.251724644e-05
2.251717897e-05
1.799933932e-05
1.981855279e-05
1.777004082e-05
1.464938938e-05
1.207581939e-05
9.95491863e-06
8.207768057e-06
6.766134239e-06
5.577340729e-06
4.598170041e-06
3.791143816e-06
3.125147126e-06
7.510069536e-05
0.0002277047302
8.165831437e-05
8.165803652e-05
7.510103481e-05
2.552069753e-05
2.552063175e-05
2.251731022e-05
2.251736364e-05
1.799935839e-05
1.981860343e-05
1.776980975e-05
1.464849084e-05
1.207572385e-05
9.956111958e-06
8.207450394e-06
6.76548569e-06
5.577692776e-06
4.598721585e-06
3.79087347e-06
3.124826626e-06
2.552075479e-05
2.5520825e-05
8.165833624e-05
0.000227707646
8.165862479e-05
7.510143567e-05
7.510130187e-05
2.552094334e-05
2.552087375e-05
2.251743376e-05
2.251740239e-05
1.98186296e-05
1.799926763e-05
1.776931077e-05
1.464839137e-05
1.207684602e-05
9.955787331e-06
8.206753212e-06
6.765879159e-06
5.578320609e-06
4.598412786e-06
3.790502243e-06
3.124706251e-06
2.251746746e-05
2.251750648e-05
7.510150194e-05
0.0002277134828
8.165929287e-05
8.165862159e-05
7.510150081e-05
2.552108748e-05
2.552104132e-05
2.552097734e-05
2.552103472e-05
2.251759737e-05
2.251755116e-05
1.981860885e-05
1.981862382e-05
1.799914821e-05
1.776921785e-05
1.464927529e-05
1.207654185e-05
9.9550741e-06
8.207180922e-06
6.766579672e-06
5.577973481e-06
4.597987994e-06
3.79036503e-06
3.125090376e-06
1.981860253e-05
1.98186191e-05
2.55210714e-05
2.552111881e-05
8.165948484e-05
0.000227724639
8.16610204e-05
7.510170128e-05
7.510157411e-05
2.55211494e-05
2.552109025e-05
2.251774187e-05
2.251771533e-05
2.251764233e-05
2.251768067e-05
1.981868139e-05
1.981864567e-05
1.799910675e-05
1.776958743e-05
1.464903844e-05
1.20758712e-05
9.955518854e-06
8.20794017e-06
6.766198397e-06
5.577494732e-06
4.59783352e-06
3.790815588e-06
3.125251876e-06
1.799912666e-05
2.251777511e-05
2.251780791e-05
7.510209338e-05
0.0002277444365
8.166456918e-05
8.166162128e-05
7.510264208e-05
2.552125809e-05
2.552114845e-05
2.552111177e-05
2.55211887e-05
2.25178886e-05
2.251784981e-05
1.981883373e-05
1.981879865e-05
1.981872222e-05
1.981876448e-05
1.799914759e-05
1.79991407e-05
1.77694952e-05
1.464851066e-05
1.207630101e-05
9.956306563e-06
8.207535138e-06
6.765670084e-06
5.57732432e-06
4.598356602e-06
3.791007326e-06
3.124838376e-06
1.981888165e-05
1.981894861e-05
2.552121583e-05
2.552137261e-05
8.166575982e-05
0.0002277778936
8.16708683e-05
7.510483471e-05
7.510364094e-05
2.552155853e-05
2.552134026e-05
2.251805795e-05
2.25180202e-05
2.251793504e-05
2.251797281e-05
1.98191015e-05
1.981902363e-05
1.799931821e-05
1.799931597e-05
1.799920572e-05
1.79992816e-05
1.776927696e-05
1.464887205e-05
1.207706007e-05
9.955898489e-06
8.206970682e-06
6.765487755e-06
5.577923234e-06
4.598582107e-06
3.790530026e-06
3.124833126e-06
1.799938744e-05
1.799951968e-05
2.251811213e-05
2.251816281e-05
7.510670101e-05
0.0002278327324
8.168141384e-05
8.167291671e-05
7.510878291e-05
2.552215754e-05
2.552175934e-05
2.552151497e-05
2.552181205e-05
2.251829566e-05
2.251823752e-05
1.981937831e-05
1.981932067e-05
1.981918068e-05
1.981925644e-05
1.799974617e-05
1.799964542e-05
1.776957888e-05
1.776973843e-05
1.776947863e-05
1.776981205e-05
1.464950122e-05
1.207668684e-05
9.955324788e-06
8.206783013e-06
6.766160261e-06
5.578185077e-06
4.598037555e-06
3.790527397e-06
3.125218876e-06
1.776961558e-05
1.777001376e-05
1.98194374e-05
1.981950782e-05
2.552206761e-05
2.552259717e-05
8.168486789e-05
0.0002279204269
8.169872555e-05
7.511536445e-05
7.511191022e-05
2.552317483e-05
2.552247144e-05
2.251862365e-05
2.251855124e-05
2.251838296e-05
2.251844631e-05
1.981963607e-05
1.981957351e-05
1.800013184e-05
1.800009519e-05
1.799986323e-05
1.800000371e-05
1.777018312e-05
1.777027654e-05
1.464881283e-05
1.464922662e-05
1.207615213e-05
9.955144554e-06
8.207518167e-06
6.766459333e-06
5.577573868e-06
4.598039272e-06
3.790980196e-06
3.125264376e-06
1.464872703e-05
1.464938021e-05
1.800019921e-05
1.800031053e-05
2.251875278e-05
2.251884186e-05
7.512056297e-05
0.0002280575017
8.172658037e-05
8.170449448e-05
7.512635267e-05
2.552483554e-05
2.552360913e-05
2.552296427e-05
2.552389004e-05
2.251911816e-05
2.251900921e-05
1.98198288e-05
1.981978564e-05
1.981969075e-05
1.981974292e-05
1.800044127e-05
1.800040026e-05
1.77706909e-05
1.777088565e-05
1.777033736e-05
1.777073828e-05
1.464926511e-05
1.464972487e-05
1.207600117e-05
9.955916237e-06
8.207852252e-06
6.765789411e-06
5.577582341e-06
4.598565212e-06
3.791036236e-06
3.124833626e-06
1.207675873e-05
1.777064869e-05
1.777107965e-05
1.981987431e-05
1.98199341e-05
2.55244263e-05
2.552604439e-05
8.173599957e-05
0.0002282671918
8.17703726e-05
7.514445703e-05
7.513495365e-05
2.552767769e-05
2.552554541e-05
2.25198972e-05
2.251972764e-05
2.251932703e-05
2.251945836e-05
1.98200631e-05
1.981999292e-05
1.800052356e-05
1.800055068e-05
1.800048147e-05
1.80005395e-05
1.777104252e-05
1.777124759e-05
1.464963855e-05
1.465018443e-05
1.464937311e-05
1.465003048e-05
1.207648622e-05
1.207712812e-05
9.956277089e-06
8.207143416e-06
6.765807189e-06
5.578184675e-06
4.598633668e-06
3.790537461e-06
3.124608876e-06
1.464939733e-05
1.465021488e-05
1.800053062e-05
1.800057489e-05
2.252025543e-05
2.252049024e-05
7.515828601e-05
0.0002285812677
8.183790522e-05
8.178551817e-05
7.517347031e-05
2.553248328e-05
2.552890858e-05
2.552698275e-05
2.552975061e-05
2.252130788e-05
2.252098421e-05
1.982041576e-05
1.982030743e-05
1.982013647e-05
1.982022291e-05
1.800058543e-05
1.800058804e-05
1.77710386e-05
1.777135322e-05
1.777109359e-05
1.777133132e-05
1.464988353e-05
1.465044323e-05
1.207675638e-05
1.207746897e-05
1.207655997e-05
1.207732302e-05
9.95556747e-06
8.207174042e-06
6.766484318e-06
5.578267396e-06
4.598062767e-06
3.790278523e-06
3.125140376e-06
1.207641487e-05
1.207740229e-05
1.777099696e-05
1.777128749e-05
1.982053921e-05
1.982071087e-05
2.553132379e-05
2.553588967e-05
8.186200261e-05
0.0002290416682
8.194020756e-05
7.5219153e-05
7.519523627e-05
2.554030518e-05
2.553449527e-05
2.252384251e-05
2.252327047e-05
2.252196308e-05
2.252239989e-05
1.982114426e-05
1.982089898e-05
1.800064148e-05
1.800066389e-05
1.800061241e-05
1.800066118e-05
1.777095511e-05
1.777127775e-05
1.464982505e-05
1.465048749e-05
1.464994478e-05
1.465042443e-05
1.207692277e-05
1.207765064e-05
9.955757908e-06
9.956525981e-06
9.955616457e-06
9.956393946e-06
8.207914727e-06
6.76658293e-06
5.577624303e-06
4.597768031e-06
3.790899466e-06
3.125253751e-06
9.955378674e-06
9.95640449e-06
1.464975488e-05
1.465041458e-05
1.80006853e-05
1.800077582e-05
2.252496261e-05
2.252571276e-05
7.525295225e-05
0.0002297018025
8.209206479e-05
8.197791881e-05
7.529010568e-05
2.555278307e-05
2.554356312e-05
2.553843362e-05
2.55457616e-05
2.252813247e-05
2.252716889e-05
1.982259303e-05
1.98221334e-05
1.982141465e-05
1.982176275e-05
1.800093056e-05
1.800085086e-05
1.777090672e-05
1.777120154e-05
1.777109718e-05
1.777130874e-05
1.464969903e-05
1.46504165e-05
1.207683577e-05
1.207765619e-05
1.207698616e-05
1.207757289e-05
9.955867725e-06
9.956649216e-06
8.207273149e-06
8.20803028e-06
6.765873899e-06
5.577294066e-06
4.598485601e-06
3.791033292e-06
3.124821126e-06
8.206892471e-06
8.207881881e-06
1.207675418e-05
1.207758452e-05
1.777087017e-05
1.777121114e-05
1.982309072e-05
1.982371607e-05
2.554993551e-05
2.556144345e-05
8.214985584e-05
8.231267218e-05
7.539813977e-05
7.534163741e-05
2.557249147e-05
2.555818889e-05
2.253515758e-05
2.253357129e-05
2.252997409e-05
2.253121112e-05
1.982518841e-05
1.982437852e-05
1.800169576e-05
1.800149084e-05
1.800107661e-05
1.800128487e-05
1.777088917e-05
1.777120335e-05
1.464976513e-05
1.465034163e-05
1.46500542e-05
1.465052743e-05
1.207669487e-05
1.207759284e-05
9.955768432e-06
9.956631867e-06
9.955927829e-06
9.956541385e-06
8.207341487e-06
8.208110029e-06
6.765512632e-06
5.578111435e-06
4.598641975e-06
3.790531339e-06
3.124846376e-06
6.76642541e-06
9.955685578e-06