/*--------------------------------*- C++ -*----------------------------------*\
  =========                 |
  \\      /  F ield         | OpenFOAM: The Open Source CFD Toolbox
   \\    /   O peration     | Website:  https://openfoam.org
    \\  /    A nd           | Version:  8
     \\/     M anipulation  |
\*---------------------------------------------------------------------------*/






FoamFile
{
    version     2.0;
    format      ascii;
    class       volScalarField;
    location    "0";
    object      pDDES;
}
// * * * * * * * * * * * * * * * * * * * * * * * * * * * * * * * * * * * * * //

dimensions      [0 2 -2 0 0 0 0];


internalField   nonuniform List<scalar> 
22462
(
0.0003002501908
0.0003002506564
0.000300436659
0.0003002475132
0.0003004371538
0.0003006233601
0.0003002345038
0.0003004345053
0.0003006237384
0.0003008106723
0.0003001990262
0.0003004217288
0.0003006213519
0.0003008104686
0.0003009973734
0.000300118234
0.0003003860475
0.0003006089828
0.0003008084605
0.0003009974607
0.0003011843655
0.0002999627613
0.0003003058082
0.0003005735343
0.000300796004
0.0003009948414
0.0003011838126
0.000301372289
0.0002996951516
0.0003001505975
0.000300493557
0.000300761254
0.0003009828506
0.0003011816298
0.0003013722016
0.0003015610564
0.0002992763766
0.0002998843847
0.0003003392776
0.0003006817715
0.0003009478969
0.0003011691733
0.0003013688547
0.0003015607945
0.0003017467679
0.0002980548015
0.0002994664828
0.0003000745201
0.000300528307
0.0003008697531
0.0003011349472
0.0003013570386
0.0003015578259
0.0003017470299
0.0003019341966
0.0002976853284
0.0002982515434
0.0002996579569
0.0003002641897
0.0003007167252
0.0003010568034
0.000301322696
0.0003015456605
0.0003017437703
0.0003019348078
0.0003021231387
0.0002969236521
0.0002978896955
0.0002984461607
0.0002998493437
0.000300454325
0.0003009057837
0.0003012458619
0.0003015119582
0.0003017319541
0.0003019323631
0.0003021241864
0.0003023126628
0.0002956285025
0.000297084247
0.0002980802383
0.000298643572
0.0003000407014
0.000300644344
0.0003010950168
0.0003014349495
0.0003016990959
0.0003019199939
0.0003021215671
0.0003023133031
0.0003025034093
0.0002944189182
0.0002958261757
0.0002973231603
0.0002982857113
0.0002988390625
0.0003002331359
0.0003008352942
0.0003012855304
0.0003016233677
0.0003018866119
0.0003021095181
0.0003023108875
0.0003025030601
0.0003026952036
0.0002924583387
0.000294431753
0.0002960368292
0.0002974837553
0.0002984775347
0.0002990366193
0.0003004259779
0.0003010267101
0.0003014754038
0.000301811815
0.0003020766308
0.0003022992751
0.0003025001497
0.0003026955528
0.0003028868814
0.0002908264869
0.0002928079048
0.0002948401088
0.0002962352592
0.0002977253171
0.0002986820182
0.0002992324007
0.0003006195475
0.0003012196685
0.0003016655974
0.0003020014556
0.0003022669116
0.0003024889156
0.0003026928753
0.0003028871724
0.0003030782973
0.0002883170964
0.0002908917959
0.0002948527399
0.0002933107316
0.0002964511514
0.0002978900739
0.0002988726774
0.0002994306851
0.0003008136409
0.0003014114336
0.0003018558491
0.0003021917364
0.0003024560865
0.0003026810591
0.0003028851352
0.0003030784428
0.0003032704117
0.0002892073535
0.0002844834526
0.0002916943049
0.0002952561481
0.0002936576493
0.0002952691284
0.0002966462052
0.0002981206635
0.0002990791691
0.0002996266703
0.0003010071232
0.0003016034316
0.000302046712
0.0003023813479
0.0003026480845
0.0003028739302
0.0003030766966
0.0003032701788
0.0003034645051
0.0002901093976
0.0002917603706
0.0002854111954
0.000283480098
0.0002956809476
0.0002941673738
0.0002956680255
0.0002968532499
0.0002982882725
0.0002992707596
0.0002998259733
0.0003012013331
0.000301795546
0.0003022360615
0.000302572269
0.0003028405481
0.0003030649968
0.0003032676468
0.0003034641559
0.0003036594717
0.0002925724548
0.0002910088806
0.0002863376576
0.0002926388406
0.0002853498154
0.0002806388948
0.0002960867423
0.0002970508067
0.0002945194719
0.0002960996353
0.000298531435
0.0002994776878
0.00030002516
0.0003013963578
0.0003019870492
0.000302427623
0.000302765693
0.000303032517
0.0003032564418
0.0003034614783
0.0003036591224
0.0003038542054
0.0002872640616
0.0002934492659
0.0002935148077
0.0002919069957
0.0002872009354
0.0002825462143
0.0002972678922
0.0002965264721
0.000295027945
0.0002965136082
0.0002974673116
0.0002986933396
0.0002996720141
0.0003002245794
0.0003015898983
0.0003021780576
0.0003026202321
0.000302958244
0.0003032236127
0.0003034497786
0.0003036561538
0.0003038537689
0.0003040507727
0.0002881811233
0.0002953799267
0.0002943254076
0.0002928173344
0.0002943919681
0.000289102958
0.0002882805711
0.000284419104
0.0002969207417
0.000297878054
0.0002969339257
0.0002976823016
0.00029893592
0.0002998783602
0.0003004205937
0.0003017830895
0.0003023706959
0.0003028137435
0.0003031506203
0.0003034174151
0.0003036445705
0.0003038508876
0.000304050569
0.0003042468452
0.0002973660594
0.0002973531082
0.0002958893892
0.0002937320096
0.0002952840878
0.0002952166251
0.0002962442231
0.0002900320978
0.0002901523258
0.0002909634204
0.0002855003695
0.0002980861464
0.0002991007641
0.0002982854494
0.0003000686993
0.0003006190236
0.0003019770666
0.0003025644692
0.0003030074586
0.0003033441608
0.0003036123526
0.0003038397117
0.000304048066
0.0003042470198
0.0003044430632
0.0002987069602
0.0002977721451
0.0002985044557
0.0002977853001
0.0002961157588
0.0002946678724
0.0002961838327
0.0002971260692
0.0002967634937
0.0002982165315
0.0002982035221
0.0002920768457
0.0002919086546
0.0002928776084
0.0002873620833
0.0002993342059
0.0002995000395
0.0003002741723
0.0003008175117
0.000302170869
0.0003027589119
0.0003032016684
0.0003035393602
0.0003038079594
0.0003040368028
0.0003042444878
0.0003044426849
0.0003046412021
0.0002989209024
0.0002999077551
0.0002997437841
0.0002991234942
0.0002976506948
0.0002956201788
0.0002971057547
0.0002970359055
0.0002980188874
0.000299076084
0.0002990627545
0.0002986252948
0.0002986385371
0.0002995449759
0.0002993402595
0.0002940656268
0.0002938599791
0.0002948609472
0.0002892501652
0.0002965993772
0.0003004675091
0.0003010192304
0.0003023664176
0.0003029547515
0.0003033973626
0.0003037358401
0.0003040055162
0.0003042338067
0.0003044404439
0.0003046414058
0.0003048418148
0.0003001527512
0.0003006773477
0.0003003159654
0.000299495965
0.0002995095565
0.0002979736892
0.0002980457793
0.0002989312052
0.000298556115
0.0002999387798
0.0002999523422
0.0003003907914
0.0003001842124
0.0002997608099
0.0002999649441
0.0003007282794
0.000300561107
0.0002961409336
0.0002958803088
0.0002969285415
0.0002911827469
0.0002975945827
0.0002986093168
0.0002990175853
0.0002989433706
0.0003012189991
0.0003025628685
0.0003031515807
0.0003035940463
0.0003039333969
0.0003042024327
0.0003044297337
0.000304638641
0.0003048418148
0.0003050430096
0.000300872809
0.0003010826767
0.0003006143088
0.0003008213534
0.000299475767
0.0002998578129
0.0003008502536
0.0003008364583
0.0003003813617
0.0003003951861
0.0003010440851
0.0003012536908
0.0003015630937
0.0003013940004
0.0003009772627
0.0003011442313
0.0003014907707
0.0003012788948
0.0002983292216
0.0002980040153
0.0002991110377
0.0002931657364
0.0002996526891
0.0003007187042
0.0002999327844
0.0003000078432
0.0003010155633
0.0003009387583
0.000300821237
0.0003004239697
0.00030142162
0.0003027612984
0.0003033494868
0.0003037925053
0.0003041312739
0.0003043990582
0.0003046283964
0.0003048394574
0.0003050432715
0.0003052465618
0.000301816006
0.0003019883588
0.0003012835514
0.0003012976958
0.0003017639974
0.0003017498821
0.0003021398152
0.0003019278229
0.0003014823887
0.0003016984265
0.0003022383316
0.0003024127509
0.0003023119934
0.0003020979057
0.0003016892006
0.0003019004362
0.0003018262505
0.0003016224364
0.00030064577
0.0003002452722
0.0003014139074
0.0002952301584
0.0003018135321
0.0003029374639
0.0003019725555
0.0003020511358
0.0003030289372
0.0003031092347
0.0003013992682
0.0003018037823
0.0003028013743
0.0003023888567
0.0003027027997
0.0003026882769
0.0003022092569
0.0003022237797
0.0003029605432
0.0003035484988
0.0003039915755
0.0003043285687
0.0003045975755
0.0003048288345
0.0003050406231
0.0003052469692
0.0003054514818
0.0003025148762
0.0003027327184
0.0003023702884
0.0003025910119
0.0003030461376
0.0003028285282
0.0003032835666
0.0003031090891
0.0003026703489
0.0003028484352
0.0003029374056
0.0003031571687
0.000302643195
0.0003024364705
0.0003020291624
0.0003022329765
0.0003030937805
0.0003026114427
0.0003038417781
0.0002974059898
0.0003040933516
0.0003052760148
0.0003041138116
0.000304196612
0.0003053137043
0.0003052284883
0.0003034063557
0.0003038303694
0.0003044460027
0.0003048814251
0.000303158944
0.0003031738161
0.0003036647104
0.0003036498092
0.00030464679
0.0003046316269
0.0003041322925
0.0003041474556
0.0003039730364
0.0003037496645
0.0003032817331
0.0003035058617
0.0003031612141
0.0003037485876
0.0003041903838
0.0003045266494
0.0003047979844
0.0003050302621
0.0003052446991
0.0003054518311
0.0003056562855
0.0003028505016
0.0003030617081
0.000303545763
0.0003037270217
0.0003041712043
0.0003039945441
0.0003040185838
0.0003037959104
0.0003033631947
0.00030358613
0.0003032721579
0.0003034848778
0.0003037667775
0.000303564535
0.0003033622052
0.0003056808782
0.0003051009262
0.000306397822
0.0002997107804
0.0003064905759
0.0003077310103
0.0003063748591
0.0003064620541
0.000307635928
0.0003075468412
0.0003055167908
0.0003059652809
0.0003070735547
0.0003066157224
0.0003051434469
0.0003051279054
0.0003056551795
0.0003056395508
0.0003061484895
0.0003061644384
0.000306690461
0.000306674483
0.0003042139579
0.0003044422483
0.0003049222287
0.0003046913771
0.0003058938019
0.0003056570131
0.000305170659
0.000305404712
0.0003050809319
0.000304895133
0.0003044379118
0.000304623798
0.0003039492585
0.0003043891338
0.0003047267382
0.0003049991792
0.0003052339889
0.0003054494737
0.0003056565765
0.000305860769
0.0003039700678
0.0003041734162
0.0003042276658
0.0003044534824
0.000304886722
0.0003046637285
0.0003043400939
0.0003041239979
0.0003036954731
0.0003039102012
0.0003043781326
0.0003045840131
0.0003041490854
0.000308415154
0.0003077265574
0.0003090986575
0.0003021537268
0.0003090047394
0.000310314208
0.00030875011
0.0003088413505
0.0003100749454
0.0003099815513
0.000307743845
0.0003082154435
0.0003093800624
0.0003088980739
0.0003071993124
0.0003072156687
0.0003077576694
0.0003077411093
0.0003088471713
0.0003088303783
0.0003082756302
0.0003082925105
0.0003063874901
0.0003061479656
0.0003068894439
0.0003066463105
0.0003071510582
0.0003073980333
0.0003079147427
0.0003076641588
0.0003053547989
0.0003055446432
0.0003060130985
0.000305823778
0.000306967675
0.0003067740763
0.0003062967153
0.0003064886259
0.000305783964
0.0003055508423
0.0003051001113
0.0003053325345
0.0003045885824
0.0003049281077
0.0003052031097
0.0003054388217
0.0003056539572
0.0003058607399
0.0003060652234
0.000304350222
0.0003045516205
0.0003045541234
0.0003047730424
0.0003052092216
0.0003049916122
0.0003054235131
0.000305211317
0.000304791407
0.0003050004307
0.0003047541832
0.000304959598
0.0003113033308
0.0003105063515
0.0003119555768
0.0003047339851
0.0003116601729
0.0003130481637
0.0003112473059
0.0003113434068
0.0003126479569
0.0003125497897
0.000310084637
0.0003105810029
0.0003118082241
0.000311298907
0.0003093999112
0.0003094176063
0.0003099458991
0.0003099278838
0.000311102689
0.0003110844118
0.0003105242795
0.0003105424694
0.000308183633
0.0003084379132
0.0003089661477
0.0003087122168
0.0003100456088
0.0003097834997
0.0003092408588
0.0003095006978
0.0003074542328
0.0003072577529
0.0003079489979
0.0003077489091
0.0003082490293
0.0003084513301
0.0003089570091
0.0003087532532
0.000306005677
0.00030624395
0.000306708389
0.0003064688644
0.0003076512075
0.0003074056003
0.0003069352242
0.0003071773972
0.0003061059688
0.0003058794246
0.0003054302651
0.0003056555579
0.000304789748
0.0003051316307
0.0003054080298
0.0003056434798
0.0003058584698
0.0003060652234
0.0003062727628
0.0003056355636
0.0003058483126
0.000306280388
0.0003060636518
0.0003057938593
0.0003055846028
0.0003051666426
0.000305374997
0.0003049931256
0.0003051983949
0.000313442928
0.000314968871
0.0003074644192
0.0003144767252
0.0003159498738
0.0003138903412
0.0003139913897
0.00031537615
0.0003152725985
0.0003125500516
0.0003130732221
0.0003143726499
0.0003138346365
0.0003116808075
0.0003116988519
0.0003122989729
0.0003122806665
0.000313514407
0.0003134955477
0.0003128799726
0.0003128987155
0.0003103518393
0.0003105991054
0.0003111221304
0.0003108705278
0.0003122758353
0.0003120039182
0.0003114528372
0.0003116972221
0.0003092642582
0.0003094709828
0.0003099922324
0.0003097815788
0.0003110516991
0.0003108411329
0.0003103055642
0.0003105218639
0.0003081354371
0.000307885377
0.0003086263896
0.0003083731572
0.0003088660014
0.0003091213002
0.000309622963
0.0003093636769
0.0003063316108
0.0003065624333
0.0003070230887
0.0003067917423
0.0003079617163
0.0003077221045
0.0003072541731
0.0003074882261
0.0003071600804
0.0003069390077
0.0003064986668
0.0003067186044
0.0003053369001
0.0003056128044
0.0003058480215
0.0003060628369
0.0003062721516
0.0003064833581
0.0003060039598
0.0003062152537
0.0003066456993
0.0003064291086
0.0003060265153
0.0003058193834
0.000305405003
0.0003056122805
0.0003174621961
0.0003190170683
0.0003167015093
0.0003168078838
0.000318278966
0.0003181705833
0.0003151591809
0.0003157150641
0.00031710029
0.0003165276721
0.0003141035559
0.0003141225316
0.0003147622629
0.0003147429961
0.0003160384367
0.000316018617
0.0003153709113
0.0003153907019
0.0003125932708
0.0003128689132
0.0003134618164
0.0003131757258
0.0003146659874
0.0003143770737
0.0003137733729
0.0003140594345
0.0003113735002
0.0003116148873
0.0003121391928
0.000311890326
0.0003132679558
0.0003130021796
0.0003124508949
0.0003126901574
0.0003098692687
0.0003101313487
0.0003106491349
0.0003103812633
0.000311689364
0.0003114258288
0.0003109044046
0.0003111755941
0.0003084438213
0.0003082006879
0.000308930903
0.0003086858487
0.0003091746767
0.0003094221174
0.0003099211317
0.0003096692672
0.000307381677
0.0003076052235
0.0003080580791
0.0003078303998
0.0003089831444
0.0003087496734
0.0003082879412
0.0003085180069
0.0003075172426
0.0003072990221
0.0003068631631
0.0003070812963
0.0003055427223
0.0003058179573
0.0003060525924
0.0003062698815
0.0003064825432
0.0003066961654
0.000306235248
0.0003064469493
0.0003068775113
0.0003066620848
0.0003061599564
0.0003059539595
0.0003057484282
0.0003196851176
0.0003197953338
0.0003213579184
0.0003212443844
0.0003179408086
0.0003185324895
0.0003200099745
0.0003194009769
0.0003166755778
0.0003166955721
0.0003173729638
0.0003173525038
0.0003187447728
0.0003187238763
0.0003180249769
0.0003180460189
0.00031497897
0.0003152723657
0.0003159050539
0.0003156021994
0.0003171706048
0.0003168587282
0.0003162257781
0.0003165210073
0.0003136011655
0.000313831144
0.0003144106013
0.0003141721536
0.0003156009479
0.0003153535072
0.0003147590032
0.0003150017001
0.0003119429166
0.0003122164635
0.0003127601813
0.0003124787763
0.0003138794855
0.0003135952575
0.0003130304103
0.0003133051796
0.0003101732582
0.0003104282077
0.0003109441022
0.0003106837976
0.0003119846806
0.000311726646
0.0003112039412
0.0003114664578
0.0003094539279
0.0003092171974
0.0003099318419
0.0003096921428
0.0003101728507
0.0003104160423
0.0003109080717
0.0003106610384
0.0003077374422
0.000307959097
0.0003084111086
0.000308184739
0.0003093277919
0.0003090962418
0.0003086386714
0.0003088671365
0.0003077429719
0.0003075258865
0.0003070934617
0.0003073096159
0.0003060226736
0.0003062592004
0.0003064797784
0.0003066950012
0.0003069096711
0.0003063694166
0.0003065812925
0.0003070116218
0.0003067961661
0.0003062291653
0.0003209038987
0.000321531028
0.0003231019655
0.0003224567045
0.0003194268211
0.0003194480669
0.0003201700165
0.0003201483632
0.0003216370824
0.0003216151381
0.000320865598
0.0003208875714
0.0003175119637
0.0003178299521
0.000318494247
0.0003181759384
0.0003198669292
0.0003195324389
0.0003188440169
0.000319170591
0.0003159545886
0.0003161990026
0.0003168155672
0.0003165661183
0.0003180797212
0.0003178116167
0.0003171755816
0.0003174302692
0.0003141462803
0.0003144327202
0.000315008685
0.000314711855
0.0003161861096
0.0003158840118
0.0003152951249
0.0003155969607
0.0003122486232
0.0003125172225
0.0003130591358
0.0003127843665
0.0003141644411
0.0003138881584
0.0003133336431
0.0003136113519
0.0003111571714
0.0003114066203
0.0003119087487
0.0003116576991
0.0003129393153
0.0003126767406
0.0003121620393
0.0003124174837
0.0003097965673
0.0003095614375
0.000310271018
0.0003100335016
0.0003105108626
0.0003107531811
0.0003112429404
0.0003109976533
0.0003079624148
0.0003081842442
0.0003086331999
0.000308407878
0.0003095455468
0.0003093147534
0.0003088593658
0.0003090857936
0.0003078738227
0.0003076567373
0.0003072263498
0.000307441107
0.0003064689517
0.0003066919744
0.0003069087688
0.0003071236424
0.0003064384218
0.0003066505597
0.0003070800449
0.0003068651713
0.0003223651438
0.0003223876411
0.0003231556911
0.0003231330775
0.0003247250861
0.0003247021232
0.0003239054931
0.000323928165
0.0003202308726
0.000320570136
0.0003212813463
0.000320941559
0.0003227527486
0.0003223954409
0.0003216568148
0.0003220076906
0.0003184669768
0.0003187296097
0.00031938951
0.0003191225987
0.0003207517439
0.0003204716777
0.0003197854385
0.0003200637293
0.000316474674
0.0003167822433
0.0003173979931
0.0003170807613
0.0003186551621
0.0003183300723
0.0003176973551
0.0003180164495
0.0003144376096
0.0003147207899
0.0003152967547
0.0003150054545
0.0003164674272
0.0003161720815
0.0003155868035
0.0003158815962
0.0003132045968
0.0003134696744
0.0003139961045
0.0003137322783
0.000315077632
0.0003148022806
0.0003142616479
0.0003145300725
0.0003114891879
0.0003117356682
0.0003122328781
0.0003119830799
0.000313263241
0.0003130013938
0.0003124846262
0.0003127414966
0.000310012314
0.0003097783192
0.0003104843199
0.0003102475312
0.0003107236989
0.0003109661629
0.0003114524879
0.0003112093254
0.0003080929164
0.0003083139018
0.0003087603545
0.0003085367498
0.0003096708679
0.0003094406566
0.0003089855018
0.0003092123952
0.0003079407034
0.0003077242
0.0003072948602
0.0003075086861
0.0003066810314
0.0003069063532
0.000307123235
0.0003073372645
0.0003071102838
0.0003068951482
0.0003231433802
0.0003235052282
0.0003242709499
0.0003239034559
0.0003258408105
0.0003254607145
0.0003246735432
0.0003250490699
0.0003211690928
0.0003214502358
0.0003221615043
0.0003218690981
0.0003236257471
0.0003233268799
0.000322588312
0.0003228898277
0.0003189689596
0.0003193015
0.0003199630301
0.0003196234175
0.0003213219752
0.0003209698189
0.0003202912631
0.0003206370166
0.0003167615505
0.0003170611744
0.000317676313
0.0003173655132
0.0003189267591
0.0003186098766
0.000317983533
0.0003182975925
0.0003153563885
0.000315635989
0.0003161988861
0.0003159167245
0.0003173478181
0.0003170566051
0.0003164817463
0.0003167680989
0.0003135255829
0.0003137850435
0.000314305129
0.0003140442714
0.000315389334
0.0003151141573
0.0003145711962
0.0003148411051
0.0003116966982
0.0003119411995
0.0003124357318
0.0003121872141
0.0003134662984
0.0003132060519
0.0003126887896
0.0003129458928
0.000310135656
0.0003099030873
0.0003106067888
0.0003103702911
0.0003108468081
0.0003110888065
0.0003115726577
0.0003113307466
0.0003081596806
0.0003083808988
0.0003088257508
0.0003086031356
0.0003097348672
0.0003095052671
0.0003090505488
0.0003092769184
0.0003079701273
0.0003077538568
0.0003073245171
0.0003075385175
0.0003071207029
0.00030733741
0.0003075514687
0.0003240699007
0.0003243732499
0.0003251352755
0.0003248237481
0.0003266984131
0.0003263799299
0.0003255966294
0.0003259133373
0.0003216627811
0.0003220198269
0.0003227353736
0.0003223670356
0.0003242015955
0.00032382668
0.0003230938164
0.0003234671021
0.0003192428849
0.000319565559
0.0003202250518
0.0003198928025
0.0003215737233
0.0003212330921
0.0003205592802
0.0003208973503
0.0003176420287
0.0003179409832
0.0003185460228
0.0003182415676
0.0003197725164
0.0003194603487
0.0003188474511
0.0003191531287
0.0003156658786
0.000315942656
0.0003164985683
0.0003162199864
0.0003176450264
0.0003173547739
0.0003167809336
0.0003170662967
0.000313724333
0.0003139808541
0.000314499368
0.0003142376663
0.0003155843879
0.0003153104044
0.0003147662792
0.000315037265
0.0003118158202
0.0003120592446
0.0003125527874
0.0003123038914
0.0003135811421
0.0003133229038
0.0003128062526
0.000313063676
0.0003101983166
0.0003099665337
0.0003106694203
0.0003104326606
0.0003109094687
0.0003111510596
0.0003116331063
0.0003113920975
0.0003081891628
0.0003084102063
0.0003088547674
0.0003086326178
0.0003097626031
0.0003095332941
0.0003090790997
0.0003093052073
0.0003079805465
0.000307764567
0.0003073351982
0.0003075491695
0.0003075516724
0.000307766808
0.0003245645203
0.0003249465663
0.0003257091739
0.0003253170871
0.0003272670147
0.0003268642467
0.0003260872909
0.0003264838015
0.0003219185164
0.0003222679661
0.0003229806607
0.0003226195986
0.0003244314867
0.0003240638762
0.0003233382886
0.0003237021738
0.0003200898936
0.0003204127715
0.0003210647847
0.0003207384143
0.0003223963431
0.0003220556246
0.0003213915625
0.0003217215417
0.0003179386549
0.0003182357177
0.0003188330447
0.0003185347887
0.000320057472
0.0003197455371
0.0003191341821
0.0003194378805
0.0003158586333
0.0003161328495
0.0003166862298
0.0003164080845
0.0003178312327
0.0003175411839
0.0003169684205
0.0003172541328
0.0003138374595
0.0003140920016
0.0003146107192
0.0003143493086
0.0003156944294
0.00031542129
0.0003148788528
0.0003151496639
0.000311876036
0.0003121190239
0.0003126123338
0.0003123634378
0.0003136392334
0.0003133819846
0.0003128663811
0.0003131234844
0.0003102256742
0.0003099942696
0.0003106965742
0.0003104598727
0.0003109366226
0.0003111779224
0.0003116592125
0.0003114182618
0.0003081991745
0.0003084201599
0.0003088649246
0.0003086425422
0.000309772091
0.000309543102
0.0003090892569
0.0003093154519
0.0003079829621
0.0003077670408
0.0003079831076
0.0003248010762
0.0003251759335
0.0003259385121
0.0003255549818
0.0003278841032
0.0003274887276
0.0003263218096
0.000326708745
0.0003227409907
0.000323088927
0.0003237905621
0.0003234383184
0.0003252278839
0.0003248630092
0.0003241445229
0.0003245021217
0.0003203763918
0.0003206980473
0.0003213429882
0.0003210207506
0.0003226742556
0.0003223333333
0.0003216685436
0.0003219977662
0.0003181244538
0.0003184201487
0.0003190128773
0.0003187160473
0.0003202364896
0.0003199234779
0.0003193130833
0.0003196162579
0.0003159671905
0.0003162396024
0.0003167926043
0.0003165142843
0.0003179370251
0.0003176470054
0.0003170759301
0.0003173610603
0.0003138942993
0.0003141486668
0.0003146677336
0.000314405479
0.0003157500178
0.0003154774604
0.0003149359254
0.0003152061545
0.0003119019384
0.0003121447808
0.0003126382362
0.0003123893985
0.0003136638843
0.0003134072758
0.0003128924291
0.0003131493286
0.0003102350456
0.0003100032627
0.0003107058583
0.0003104691568
0.0003109459649
0.0003111866827
0.000311667769
0.0003114271385
0.0003082015319
0.000308422721
0.0003088674275
0.0003086454235
0.00030977407
0.0003095456632
0.0003090918763
0.0003093181003
0.0003082022886
0.0003255993652
0.0003259728837
0.0003267255961
0.000326349691
0.0003282728139
0.0003278777003
0.0003271040041
0.0003274880291
0.0003230186703
0.0003233634925
0.0003240618389
0.0003237115452
0.0003254981129
0.0003251320159
0.0003244154796
0.0003247717104
0.000320555584
0.0003208751732
0.0003215157485
0.0003211948788
0.0003228479763
0.0003225073742
0.0003218410711
0.000322171225
0.0003182303335
0.0003185241949
0.0003191149444
0.0003188187547
0.0003203388478
0.0003200249339
0.0003194150049
0.0003197178885
0.0003160215274
0.0003162942012
0.0003168468247
0.000316568272
0.0003179901978
0.0003176998289
0.0003171298013
0.0003174145822
0.0003139182518
0.0003141726484
0.0003146918607
0.0003144294315
0.0003157736792
0.0003155023442
0.000314960751
0.0003152312129
0.0003119105822
0.0003121533082
0.0003126469383
0.0003123980423
0.0003136721207
0.0003134158324
0.0003129012184
0.0003131580015
0.0003102372284
0.0003100053291
0.0003107079829
0.0003104715724
0.0003109480022
0.0003111888655
0.0003116698936
0.0003114286228
0.0003084238269
0.0003088678932
0.000308646122
0.0003097743611
0.0003095454886
0.0003090915561
0.0003093177802
0.0003258681973
0.0003262415412
0.0003269884037
0.0003266142448
0.0003285350685
0.0003281420504
0.0003273668699
0.0003277509531
0.0003231902083
0.0003235338081
0.0003242310486
0.0003238808713
0.0003256650525
0.0003252992756
0.000324583496
0.0003249392612
0.0003206572146
0.0003209758434
0.0003216142941
0.0003212935699
0.0003229463473
0.0003226062981
0.0003219392383
0.0003222700616
0.0003182833316
0.0003185762907
0.0003191656433
0.0003188700648
0.0003203900415
0.000320076244
0.0003194666351
0.0003197681217
0.0003160449851
0.0003163169022
0.0003168693802
0.000316591002
0.0003180127824
0.0003177222679
0.0003171521239
0.0003174366429
0.0003139269538
0.000314180681
0.0003147000098
0.0003144373768
0.000315781188
0.0003155096783
0.0003149683471
0.0003152390709
0.0003119122121
0.0003121548216
0.0003126484226
0.0003123997303
0.0003136736923
0.0003134172002
0.0003129029355
0.0003131594276
0.0003102383344
0.0003100057074
0.0003107081575
0.0003104720381
0.0003109474783
0.0003111880796
0.000311669748
0.0003114286519
0.0003260352823
0.0003264059487
0.0003271510359
0.0003267772845
0.0003286965366
0.0003283043916
0.0003275293566
0.0003279143712
0.0003232868621
0.0003236297925
0.0003243259562
0.0003239764774
0.0003257599601
0.0003253935429
0.0003246785491
0.0003250335576
0.0003207083209
0.0003210253781
0.0003216640034
0.0003213434829
0.0003229953581
0.0003226562694
0.0003219889768
0.0003223194508
0.0003183058579
0.0003185978276
0.000319187413
0.0003188912524
0.0003204114037
0.0003200968495
0.0003194876481
0.000319789513
0.0003160517663
0.0003163236252
0.0003168765106
0.0003165981616
0.0003180195054
0.000317729282
0.0003171593125
0.000317443104
0.0003139282635
0.0003141824563
0.0003147015814
0.0003144386865
0.0003157820902
0.000315510988
0.0003149698896
0.0003152398858
0.0003119123285
0.0003121549089
0.0003126487718
0.0003123995266
0.0003136732266
0.0003134166473
0.0003129026154
0.0003131593694
0.0003261284146
0.0003264983825
0.0003272421309
0.0003268685541
0.000328786904
0.0003283955739
0.0003276211792
0.0003280058154
0.0003233352327
0.0003236775228
0.0003243729589
0.0003240238875
0.0003258065553
0.0003254401381
0.0003247252316
0.0003250802692
0.0003207286645
0.0003210457508
0.0003216845798
0.00032136339
0.0003230157308
0.0003226770496
0.0003220096987
0.0003223401727
0.0003183123481
0.0003186044923
0.0003191941069
0.0003188980336
0.0003204177774
0.0003201037471
0.0003194946621
0.0003197952174
0.0003160532215
0.0003163253423
0.0003168784315
0.000316599384
0.0003180201747
0.0003177301842
0.0003171604767
0.0003174444428
0.0003139282926
0.0003141821944
0.0003147016687
0.0003144392103
0.0003157817409
0.0003155102022
0.000314969453
0.0003152394784
0.0003261746897
0.0003265437554
0.0003272867179
0.0003269131994
0.0003288309381
0.0003284402774
0.0003276661155
0.0003280507517
0.0003233552561
0.0003236973134
0.0003243921383
0.0003240433289
0.0003258256475
0.0003254589101
0.000324744411
0.0003250993032
0.0003207353002
0.0003210520954
0.0003216906625
0.0003213695309
0.0003230215807
0.0003226829576
0.0003220156941
0.0003223463427
0.0003183129302
0.0003186050453
0.000319194718
0.0003188986157
0.0003204184759
0.0003201039508
0.000319494633
0.0003197960323
0.0003160534252
0.0003163254005
0.0003168786352
0.0003166001698
0.0003180200292
0.0003177304752
0.0003171607968
0.0003174445592
0.0003261934035
0.0003265621781
0.0003273044713
0.000326931302
0.0003288483713
0.0003284577106
0.0003276842181
0.0003280685924
0.0003233610478
0.0003237029887
0.0003243975225
0.0003240489168
0.0003258307115
0.000325464207
0.0003247498244
0.0003251046001
0.0003207359114
0.0003210527939
0.0003216906043
0.000321369851
0.0003230217262
0.000322683074
0.0003220158396
0.0003223464009
0.00031831261
0.000318604667
0.0003191940486
0.0003188979754
0.0003204176901
0.000320103165
0.0003194936435
0.0003197950427
0.0003261984966
0.0003265670093
0.0003273091861
0.0003269359586
0.0003288524167
0.0003284621926
0.0003276887001
0.0003280732199
0.0003233610187
0.0003237029887
0.0003243972606
0.0003240487131
0.0003258301876
0.0003254637413
0.000324749446
0.000325104309
0.0003207349509
0.0003210522118
0.0003216896148
0.0003213690361
0.0003230204456
0.0003226819681
0.0003220146755
0.0003223456151
0.0003261976526
0.000326566078
0.0003273082839
0.0003269351437
0.0003288509033
0.0003284608538
0.000327687856
0.0003280720266
0.0003233599127
0.0003237019409
0.0003243961546
0.000324047578
0.0003258285578
0.0003254628391
0.0003247481654
0.0003251030867
0.000326196081
0.0003265641863
0.0003273068578
0.0003269335139
0.0003288486623
0.0003284584382
0.0003276859643
0.0003280701931
0.0002707774402
0.0002707783424
0.0002710577101
0.0002707708627
0.0002710584085
0.0002713349531
0.0002707427484
0.0002710512781
0.0002713360009
0.0002716116724
0.0002706667583
0.0002710240078
0.0002713291324
0.0002716119634
0.0002718895848
0.0002704985091
0.0002709488326
0.0002713024733
0.0002716062008
0.0002718909236
0.0002721691853
0.0002701822086
0.0002707827953
0.0002712286077
0.0002715791052
0.0002718850446
0.0002721706987
0.0002724471269
0.0002696565934
0.0002704709477
0.0002710642584
0.0002715055307
0.0002718582691
0.000272165169
0.0002724487567
0.0002727187821
0.0002688631648
0.0002699500183
0.0002707565145
0.0002713426657
0.0002717834432
0.0002721379278
0.0002724433725
0.0002727204119
0.0002729865373
0.0002666598011
0.0002691585687
0.0002702411148
0.0002710369008
0.0002716201125
0.0002720629855
0.0002724161313
0.0002727145911
0.0002729867701
0.0002732510038
0.000266020128
0.0002669662354
0.0002694549621
0.0002705287479
0.0002713153663
0.0002718986361
0.0002723420621
0.0002726886887
0.0002729807456
0.0002732508292
0.0002735136077
0.0002663345076
0.0002647280053
0.0002672726696
0.0002697493182
0.0002708119282
0.0002715932787
0.0002721778001
0.0002726161038
0.0002729552216
0.000273243757
0.0002735150629
0.0002737759205
0.0002666400396
0.0002650085371