/*--------------------------------*- C++ -*----------------------------------*\
  =========                 |
  \\      /  F ield         | OpenFOAM: The Open Source CFD Toolbox
   \\    /   O peration     | Website:  https://openfoam.org
    \\  /    A nd           | Version:  8
     \\/     M anipulation  |
\*---------------------------------------------------------------------------*/






FoamFile
{
    version     2.0;
    format      ascii;
    class       volVectorField;
    location    "0";
    object      UDDES;
}
// * * * * * * * * * * * * * * * * * * * * * * * * * * * * * * * * * * * * * //

dimensions      [0 1 -1 0 0 0 0];


internalField   nonuniform List<vector> 
22462
(
( 0.0003670255537 7.010413583e-08 -1.805080956e-06 )
( 0.0008070257027 1.008090607e-07 -3.838238626e-06 )
( 0.0003670699371 7.12923196e-08 -1.769016308e-06 )
( 0.001480170758 1.66064055e-07 -6.579062756e-06 )
( 0.0008071112679 1.046998008e-07 -3.686208629e-06 )
( 0.0003670573351 7.191336948e-08 -1.675624503e-06 )
( 0.002292456338 1.222467318e-07 -9.537971891e-06 )
( 0.001480430248 1.791142239e-07 -6.509869763e-06 )
( 0.0008071501506 1.08387809e-07 -3.579008307e-06 )
( 0.000367049739 7.354919518e-08 -1.655271717e-06 )
( 0.003236272139 -3.032879761e-07 -1.211595463e-05 )
( 0.002292914782 1.602099076e-07 -9.309082998e-06 )
( 0.001480530482 1.906918499e-07 -6.228720395e-06 )
( 0.000807114644 1.151001499e-07 -3.418103461e-06 )
( 0.0003670140577 7.585202866e-08 -1.616753934e-06 )
( 0.004272337537 -1.42807653e-06 -1.401994632e-05 )
( 0.003237127559 -1.880854512e-07 -1.185752808e-05 )
( 0.00229320582 2.043954908e-07 -9.024711289e-06 )
( 0.001480539329 2.054774342e-07 -5.954958397e-06 )
( 0.000807069242 1.189963115e-07 -3.329295168e-06 )
( 0.0003669713915 7.561063597e-08 -1.558276495e-06 )
( 0.005332891364 -3.372657602e-06 -1.458035877e-05 )
( 0.004273841623 -1.185639235e-06 -1.352762501e-05 )
( 0.003237790428 -9.268892143e-08 -1.144319231e-05 )
( 0.002293345053 2.447357588e-07 -8.564965356e-06 )
( 0.001480501378 2.240146415e-07 -5.677127319e-06 )
( 0.0008070148178 1.263558715e-07 -3.195881618e-06 )
( 0.0003669145517 7.689270376e-08 -1.439881316e-06 )
( 0.006348188967 -6.294275408e-06 -1.405155399e-05 )
( 0.005335665308 -2.96802682e-06 -1.403903116e-05 )
( 0.004275250714 -9.697157566e-07 -1.313598568e-05 )
( 0.003238334088 -3.396603887e-09 -1.099433211e-05 )
( 0.00229344354 2.819689087e-07 -8.168454769e-06 )
( 0.001480480074 2.437481044e-07 -5.498156497e-06 )
( 0.0008068891475 1.318634446e-07 -2.984715593e-06 )
( 0.000366829976 7.665525459e-08 -1.365434173e-06 )
( 0.007274438161 -1.089608941e-05 -1.298721418e-05 )
( 0.006352572702 -5.743151178e-06 -1.329304996e-05 )
( 0.005338217132 -2.644078904e-06 -1.338790935e-05 )
( 0.004276443738 -7.963435564e-07 -1.242083908e-05 )
( 0.003238656325 8.705200827e-08 -1.031195006e-05 )
( 0.002293442842 3.417808045e-07 -7.759050277e-06 )
( 0.001480287872 2.714037635e-07 -5.126038104e-06 )
( 0.0008067163872 1.374023242e-07 -2.765036243e-06 )
( 0.0003667116398 7.947700453e-08 -1.242407507e-06 )
( 0.008663845249 -2.545215648e-05 -1.200865063e-05 )
( 0.007280949503 -1.019389674e-05 -1.211749168e-05 )
( 0.00635695504 -5.312282156e-06 -1.270041048e-05 )
( 0.005340753123 -2.294974593e-06 -1.2881982e-05 )
( 0.004277590197 -6.54750977e-07 -1.176720616e-05 )
( 0.003238963196 1.892672685e-07 -9.766889889e-06 )
( 0.002293373458 3.857975912e-07 -7.372301297e-06 )
( 0.001480056322 2.858998869e-07 -4.824605185e-06 )
( 0.000806538912 1.421308866e-07 -2.609134526e-06 )
( 0.0003665921977 7.897455134e-08 -1.165834078e-06 )
( 0.008916394785 -3.009103784e-05 -1.229061127e-05 )
( 0.008673590608 -2.428776315e-05 -1.054091445e-05 )
( 0.00728714373 -9.561082152e-06 -1.113658072e-05 )
( 0.006360938307 -4.769038242e-06 -1.180564686e-05 )
( 0.005342922639 -2.038573257e-06 -1.184831308e-05 )
( 0.004278419074 -4.563955827e-07 -1.083275583e-05 )
( 0.003239095211 2.861697226e-07 -9.125360521e-06 )
( 0.002293154597 4.364940196e-07 -6.913334346e-06 )
( 0.001479767147 3.070111632e-07 -4.520997209e-06 )
( 0.0008063101559 1.439841384e-07 -2.462395514e-06 )
( 0.0003664300893 7.886674069e-08 -1.068417077e-06 )
( 0.009328240529 -3.871771332e-05 -1.173923556e-05 )
( 0.008927420713 -2.784263052e-05 -1.075197633e-05 )
( 0.00868283771 -2.338368904e-05 -8.997705663e-06 )
( 0.007292994298 -8.930066542e-06 -1.004209753e-05 )
( 0.00636487687 -4.382254247e-06 -1.088862518e-05 )
( 0.005345155485 -1.765345814e-06 -1.102049373e-05 )
( 0.004279474728 -3.289580093e-07 -1.028031511e-05 )
( 0.003239314537 3.668124577e-07 -8.693355085e-06 )
( 0.002292913618 4.775127991e-07 -6.515125278e-06 )
( 0.001479445957 3.157744572e-07 -4.284752777e-06 )
( 0.0008060249384 1.435541037e-07 -2.300704409e-06 )
( 0.0003662578529 8.036172972e-08 -1.000698717e-06 )
( 0.009842370637 -5.428257282e-05 -7.728997844e-06 )
( 0.009336981922 -3.822556391e-05 -1.054771019e-05 )
( 0.008936323225 -2.783394848e-05 -8.999386409e-06 )
( 0.008691960946 -2.224731543e-05 -7.513155651e-06 )
( 0.00729874894 -8.356594662e-06 -8.878741937e-06 )
( 0.006368517876 -3.95369716e-06 -9.631430657e-06 )
( 0.005347149912 -1.540248377e-06 -1.003179932e-05 )
( 0.004280182067 -1.624871828e-07 -9.52940718e-06 )
( 0.003239292651 4.46538138e-07 -8.108083421e-06 )
( 0.002292549005 5.048093499e-07 -6.099932307e-06 )
( 0.001478975988 3.219131202e-07 -4.022413577e-06 )
( 0.0008056503139 1.513322445e-07 -2.150945875e-06 )
( 0.000366066175 8.266346896e-08 -9.557169278e-07 )
( 0.01026288234 -7.271877985e-05 -2.543610663e-06 )
( 0.00985488575 -5.182623136e-05 -6.436692274e-06 )
( 0.009350482374 -3.589895277e-05 -8.823402823e-06 )
( 0.008946958929 -2.561821384e-05 -7.597013791e-06 )
( 0.008700889535 -2.153166679e-05 -6.33763284e-06 )
( 0.007304400206 -7.844197171e-06 -7.707883015e-06 )
( 0.006372307427 -3.622686791e-06 -8.742849786e-06 )
( 0.005349143408 -1.292769866e-06 -9.227870578e-06 )
( 0.004280861001 -4.841752599e-08 -8.834751497e-06 )
( 0.003239131998 5.069674103e-07 -7.53941049e-06 )
( 0.002291984856 5.28601845e-07 -5.709747711e-06 )
( 0.001478429767 3.323476676e-07 -3.757970035e-06 )
( 0.0008052034536 1.607695737e-07 -2.016875669e-06 )
( 0.0003658262722 8.733448453e-08 -9.364799212e-07 )
( 0.0107632596 -0.0001017984978 4.209909093e-06 )
( 0.01026362553 -7.261232531e-05 -2.428004336e-06 )
( 0.009866761975 -5.075523222e-05 -4.800308943e-06 )
( 0.00935828872 -3.553650458e-05 -7.391978215e-06 )
( 0.008955540136 -2.595337355e-05 -6.181257049e-06 )
( 0.008709879592 -2.053210301e-05 -5.167472864e-06 )
( 0.007309915032 -7.395040939e-06 -6.587917596e-06 )
( 0.006375701167 -3.296921022e-06 -7.615435607e-06 )
( 0.005350767635 -1.143085115e-06 -8.204408005e-06 )
( 0.004281314556 5.526500146e-08 -8.013184015e-06 )
( 0.0032388072 5.352127346e-07 -6.993552233e-06 )
( 0.0022913625 5.497524853e-07 -5.380307357e-06 )
( 0.001477655838 3.626618081e-07 -3.517454843e-06 )
( 0.0008047310985 1.716094999e-07 -1.940479933e-06 )
( 0.0003655416658 9.242710064e-08 -8.499187061e-07 )
( 0.01110897679 -0.0001237969846 7.23147059e-06 )
( 0.01078381762 -9.895279072e-05 7.385707249e-06 )
( 0.01028685831 -6.787387974e-05 9.033547599e-07 )
( 0.009878396988 -4.816821092e-05 -3.349499821e-06 )
( 0.009371161461 -3.382361683e-05 -5.592408343e-06 )
( 0.00896596536 -2.384953041e-05 -5.174686976e-06 )
( 0.008718350902 -1.984737537e-05 -3.923540135e-06 )
( 0.007315091789 -6.895499155e-06 -5.48797334e-06 )
( 0.006379046477 -3.076186431e-06 -6.654090157e-06 )
( 0.005352385342 -9.722573395e-07 -7.343843208e-06 )
( 0.004281526897 1.187957324e-07 -7.388828635e-06 )
( 0.003238262841 6.104615977e-07 -6.723379101e-06 )
( 0.002290451666 6.074629937e-07 -5.110292477e-06 )
( 0.001476891688 3.946068716e-07 -3.409043074e-06 )
( 0.0008041429101 1.886908052e-07 -1.822428317e-06 )
( 0.0003652259184 9.914755594e-08 -8.135678513e-07 )
( 0.0115485983 -0.0001688077173 -2.955395303e-06 )
( 0.01111285202 -0.0001229473419 7.844344509e-06 )
( 0.01028762758 -6.775133079e-05 9.998350379e-07 )
( 0.01081213448 -9.312989278e-05 1.133205751e-05 )
( 0.009889398701 -4.824775533e-05 -1.213652808e-06 )
( 0.00937899854 -3.331260814e-05 -4.645321496e-06 )
( 0.008974185213 -2.394946569e-05 -4.059522325e-06 )
( 0.008726576343 -1.875130329e-05 -2.773005235e-06 )
( 0.007320229895 -6.507177204e-06 -4.544343938e-06 )
( 0.006382049527 -2.737567911e-06 -5.743917882e-06 )
( 0.005353703164 -7.963885764e-07 -6.628312804e-06 )
( 0.004281447269 2.875859764e-07 -7.034426289e-06 )
( 0.003237354569 7.333921417e-07 -6.339309039e-06 )
( 0.00228938926 6.960634096e-07 -4.898696261e-06 )
( 0.001475975849 4.38347314e-07 -3.263835652e-06 )
( 0.0008034961065 2.097334288e-07 -1.733252134e-06 )
( 0.0003648775746 1.048442044e-07 -7.905975963e-07 )
( 0.01159840543 -0.0001567144645 3.336091595e-06 )
( 0.01215266809 -0.00024655374 -5.138339475e-05 )
( 0.0111588724 -0.0001137086219 1.429823624e-05 )
( 0.01031119376 -6.54944015e-05 4.180462838e-06 )
( 0.01083247457 -8.993942174e-05 1.336603509e-05 )
( 0.01031190064 -6.537696026e-05 4.263821211e-06 )
( 0.009900298901 -4.55585614e-05 -3.216666755e-08 )
( 0.009390737861 -3.116594235e-05 -3.271797141e-06 )
( 0.008983878419 -2.182242133e-05 -2.817009317e-06 )
( 0.008734687231 -1.802665247e-05 -2.047415364e-06 )
( 0.007325016428 -5.939890798e-06 -3.720153927e-06 )
( 0.006384958047 -2.419246357e-06 -4.992499726e-06 )
( 0.005354690365 -5.426704206e-07 -6.273179679e-06 )
( 0.004281026777 5.135837569e-07 -6.797848073e-06 )
( 0.003236335702 8.982952977e-07 -6.118716101e-06 )
( 0.002288250253 7.853967645e-07 -4.776040896e-06 )
( 0.001474926015 4.96459279e-07 -3.124212071e-06 )
( 0.0008027970907 2.299984203e-07 -1.632019234e-06 )
( 0.0003644990502 1.12735691e-07 -7.183064099e-07 )
( 0.01164594106 -0.0001446092792 8.897316548e-06 )
( 0.01116226334 -0.0001128600779 1.475986392e-05 )
( 0.01220201422 -0.000231539947 -4.79435912e-05 )
( 0.01250798348 -0.0002775831672 -7.350726082e-05 )
( 0.01033413131 -6.026440678e-05 6.408116406e-06 )
( 0.01085903309 -8.406148118e-05 1.623043136e-05 )
( 0.01033338439 -6.03792796e-05 6.348284387e-06 )
( 0.009910668246 -4.447204628e-05 9.067594533e-07 )
( 0.009398262016 -3.07409864e-05 -2.404242196e-06 )
( 0.008991650306 -2.206957652e-05 -2.132253258e-06 )
( 0.008742701262 -1.691494981e-05 -1.3531984e-06 )
( 0.007329653483 -5.371394309e-06 -3.058186394e-06 )
( 0.006387440022 -1.97885106e-06 -4.516587069e-06 )
( 0.005355219822 -1.451943206e-07 -6.021631634e-06 )
( 0.004280356225 8.191935308e-07 -6.454944469e-06 )
( 0.003235067707 1.08420727e-06 -5.888190572e-06 )
( 0.002286811359 9.144646356e-07 -4.516816716e-06 )
( 0.001473716227 5.565152605e-07 -2.897972081e-06 )
( 0.0008019962697 2.521665294e-07 -1.554696382e-06 )
( 0.0003640887444 1.183294529e-07 -6.967073887e-07 )
( 0.01120494213 -0.0001033771841 1.961985618e-05 )
( 0.01169051789 -0.0001314619876 1.267204243e-05 )
( 0.01224967837 -0.0002166435588 -4.353728218e-05 )
( 0.01120812632 -0.000102472477 1.997223626e-05 )
( 0.01260008197 -0.0002423540427 -6.640701758e-05 )
( 0.01305360533 -0.0003650372673 -9.61909609e-05 )
( 0.01035674103 -5.807558045e-05 8.408164831e-06 )
( 0.009921573102 -4.192285269e-05 1.878162266e-06 )
( 0.01087762229 -8.065785369e-05 1.794817945e-05 )
( 0.01035739761 -5.795267498e-05 8.472255104e-06 )
( 0.009410415776 -2.893194505e-05 -1.296861456e-06 )
( 0.009001207538 -1.99504575e-05 -1.408995331e-06 )
( 0.008750240318 -1.610926302e-05 -7.506989732e-07 )
( 0.007333946414 -4.733432888e-06 -2.589662699e-06 )
( 0.006389604881 -1.45654792e-06 -4.334391633e-06 )
( 0.005355619825 3.160352549e-07 -5.793405762e-06 )
( 0.004279596265 1.104540615e-06 -6.235807632e-06 )
( 0.003233617404 1.297874292e-06 -5.627295195e-06 )
( 0.00228529796 1.031296279e-06 -4.255360182e-06 )
( 0.001472425996 6.118509077e-07 -2.777808959e-06 )
( 0.0008011534228 2.694737304e-07 -1.494839466e-06 )
( 0.0003636197362 1.240951093e-07 -6.671538699e-07 )
( 0.01229478978 -0.0002009547461 -3.892966197e-05 )
( 0.01124821603 -9.202038927e-05 2.332550866e-05 )
( 0.01125144027 -9.097734437e-05 2.347383452e-05 )
( 0.01173471473 -0.0001169680836 1.382087612e-05 )
( 0.01268669404 -0.0002046573936 -5.810172297e-05 )
( 0.01314597577 -0.0003234111646 -9.082132601e-05 )
( 0.009932586923 -4.199465911e-05 2.75924549e-06 )
( 0.01037812326 -5.2551306e-05 1.053901451e-05 )
( 0.01090271119 -7.393696433e-05 2.007550938e-05 )
( 0.01037745178 -5.268624591e-05 1.048077866e-05 )
( 0.00994316116 -3.946265133e-05 3.743927664e-06 )
( 0.009417441674 -2.859543383e-05 -7.791851431e-07 )
( 0.009008432738 -1.993533988e-05 -8.230523463e-07 )
( 0.00875769183 -1.474952842e-05 -4.264228437e-07 )
( 0.007337959018 -3.962442861e-06 -2.422352964e-06 )
( 0.006391454488 -7.441383332e-07 -4.240978797e-06 )
( 0.005355716217 7.795666761e-07 -5.649915238e-06 )
( 0.004278477281 1.454174821e-06 -6.051141554e-06 )
( 0.003231925424 1.508960054e-06 -5.36205107e-06 )
( 0.002283531241 1.148827096e-06 -4.099680154e-06 )
( 0.001470952644 6.600228062e-07 -2.705480938e-06 )
( 0.0008002322866 2.844014659e-07 -1.504359034e-06 )
( 0.0003631546861 1.247215948e-07 -7.052800015e-07 )
( 0.01234028302 -0.0001839496981 -3.527709123e-05 )
( 0.01092022099 -7.01878671e-05 2.137098636e-05 )
( 0.01129115839 -7.953476597e-05 2.499457696e-05 )
( 0.01177631691 -0.0001024868252 1.430347675e-05 )
( 0.01129425596 -7.85160446e-05 2.508372199e-05 )
( 0.01238295715 -0.0001660237904 -3.254535477e-05 )
( 0.01273274794 -0.0001812530827 -5.367440463e-05 )
( 0.01322955638 -0.0002784352691 -8.585902106e-05 )
( 0.01039850526 -4.974836702e-05 1.191597585e-05 )
( 0.009962509386 -3.540264515e-05 5.32656486e-06 )
( 0.01039912924 -4.961148807e-05 1.19744609e-05 )
( 0.009952528402 -3.831999857e-05 4.858679858e-06 )
( 0.00942869205 -2.630679955e-05 1.291579679e-07 )
( 0.009017401375 -1.749080002e-05 -4.93506775e-07 )
( 0.008764804341 -1.379505647e-05 -2.193336712e-07 )
( 0.007341674529 -3.046669917e-06 -2.424192189e-06 )
( 0.006393093616 -1.038839486e-07 -4.251288374e-06 )
( 0.005355597008 1.300388931e-06 -5.596033589e-06 )
( 0.004277242813 1.769752316e-06 -6.004601346e-06 )
( 0.003230122384 1.707150432e-06 -5.368651728e-06 )
( 0.002281635068 1.244476948e-06 -4.086075933e-06 )
( 0.001469428302 7.009940077e-07 -2.750880867e-06 )
( 0.000799264235 2.925331728e-07 -1.566903052e-06 )
( 0.0003626431862 1.258598132e-07 -7.204585586e-07 )
( 0.01041895617 -4.379265374e-05 1.363513547e-05 )
( 0.01041831821 -4.393266136e-05 1.358395548e-05 )
( 0.01094462723 -6.293396291e-05 2.244740426e-05 )
( 0.0118168639 -8.705387881e-05 1.409220295e-05 )
( 0.01133421715 -6.582513743e-05 2.621959356e-05 )
( 0.01133127976 -6.689863949e-05 2.615801895e-05 )
( 0.01096115541 -5.880431127e-05 2.328777191e-05 )
( 0.01242335048 -0.0001476100588 -3.050555279e-05 )
( 0.01280643605 -0.0001381829061 -4.824915231e-05 )
( 0.01246333029 -0.0001289617212 -2.849219891e-05 )
( 0.01327397581 -0.0002505918674 -8.296103624e-05 )
( 0.009972047061 -3.503396874e-05 5.96613927e-06 )
( 0.009435338899 -2.548234625e-05 4.920802326e-07 )
( 0.009982214309 -3.22736305e-05 6.619620308e-06 )
( 0.009024232626 -1.735451951e-05 -2.840479851e-07 )
( 0.008772020228 -1.234600313e-05 -1.714249009e-07 )
( 0.007345187478 -2.185035328e-06 -2.572952326e-06 )
( 0.006394445896 6.364655292e-07 -4.463092409e-06 )
( 0.005355290137 1.75696573e-06 -5.845886335e-06 )
( 0.004275761545 2.092154546e-06 -6.211743766e-06 )
( 0.003228053218 1.880116542e-06 -5.452725418e-06 )
( 0.002279618988 1.333352884e-06 -4.221413747e-06 )
( 0.001467849244 7.28657767e-07 -2.945974757e-06 )
( 0.0007982573588 2.995764135e-07 -1.633728061e-06 )
( 0.0003621406504 1.259272722e-07 -7.786277934e-07 )
( 0.0100009609 -2.780919385e-05 7.954557077e-06 )
( 0.01043827552 -4.082225496e-05 1.508092009e-05 )
( 0.009991313331 -3.081411705e-05 7.446461041e-06 )
( 0.01043885294 -4.067980262e-05 1.512913332e-05 )
( 0.01136988867 -5.33862476e-05 2.675733776e-05 )
( 0.01185563765 -7.199277752e-05 1.526291271e-05 )
( 0.01137267984 -5.221251558e-05 2.678415694e-05 )
( 0.01099868491 -4.759803778e-05 2.539423076e-05 )
( 0.01098360121 -5.168289135e-05 2.438034971e-05 )
( 0.01045707613 -3.464039037e-05 1.60965028e-05 )
( 0.01045647915 -3.478758299e-05 1.606896876e-05 )
( 0.01287231874 -9.030960791e-05 -4.307944982e-05 )
( 0.01249879692 -0.0001081599985 -2.631011193e-05 )
( 0.01253221743 -8.647297363e-05 -2.365248656e-05 )
( 0.01334400382 -0.0002004641428 -7.789682422e-05 )
( 0.009446103126 -2.329862582e-05 7.508441513e-07 )
( 0.009452734143 -2.26508364e-05 1.24130986e-06 )
( 0.009033014067 -1.492523188e-05 -9.770445075e-08 )
( 0.008778756484 -1.116571002e-05 -2.16679652e-07 )
( 0.00734841451 -1.241641144e-06 -2.873315225e-06 )
( 0.00639561424 1.268701226e-06 -4.822499704e-06 )
( 0.005354756024 2.233472514e-06 -6.19629327e-06 )
( 0.004274016712 2.368000423e-06 -6.456470601e-06 )
( 0.003225854598 2.038618504e-06 -5.672188308e-06 )
( 0.002277523978 1.39454869e-06 -4.45025762e-06 )
( 0.001466187183 7.504875725e-07 -3.030930884e-06 )
( 0.0007971880841 3.055633613e-07 -1.705221052e-06 )
( 0.0003616120957 1.281983941e-07 -8.093346082e-07 )
( 0.01000961103 -2.742654578e-05 8.625558621e-06 )
( 0.009469191544 -1.920387149e-05 1.816844701e-06 )
( 0.009463376366 -1.998540392e-05 1.70849205e-06 )
( 0.01001893915 -2.456585207e-05 9.16224235e-06 )
( 0.01101967506 -3.987016316e-05 2.591214798e-05 )
( 0.01189023908 -5.528864131e-05 1.666782009e-05 )
( 0.01140673552 -3.887998901e-05 2.862653128e-05 )
( 0.01140427869 -4.000154877e-05 2.848461554e-05 )
( 0.01103314105 -3.561697667e-05 2.665337161e-05 )
( 0.01049119607 -2.538988701e-05 1.824834362e-05 )
( 0.01049069874 -2.553154445e-05 1.820874058e-05 )
( 0.01047454122 -3.143222057e-05 1.726957635e-05 )
( 0.01047505438 -3.128060052e-05 1.730483746e-05 )
( 0.01003572065 -2.009675154e-05 9.96324161e-06 )
( 0.01002688333 -2.307139403e-05 9.520134881e-06 )
( 0.01293242257 -3.742413537e-05 -3.553942588e-05 )
( 0.01256554946 -6.443783059e-05 -2.069623952e-05 )
( 0.01259637158 -4.055695172e-05 -1.713691745e-05 )
( 0.01340616401 -0.000146641818 -7.13528425e-05 )
( 0.01192213502 -3.675027983e-05 1.796155266e-05 )
( 0.009039415978 -1.45326303e-05 -9.877805951e-08 )
( 0.008785490878 -9.687417332e-06 -3.285525452e-07 )
( 0.007351512555 -4.078275708e-07 -3.360884421e-06 )
( 0.006396561395 1.927282938e-06 -5.37570304e-06 )
( 0.005353936926 2.633851864e-06 -6.659291103e-06 )
( 0.004272020422 2.641957735e-06 -6.876417501e-06 )
( 0.00322342338 2.178043587e-06 -6.110792128e-06 )
( 0.002275255974 1.461239208e-06 -4.723065558e-06 )
( 0.001464419533 7.741350601e-07 -3.183113222e-06 )
( 0.0007961212541 3.144972993e-07 -1.816725671e-06 )
( 0.0003610730637 1.312235014e-07 -9.179242966e-07 )
( 0.00947955437 -1.695002538e-05 2.156734581e-06 )
( 0.00904781092 -1.196854282e-05 -1.013652167e-07 )
( 0.009485173039 -1.631019768e-05 2.201071993e-06 )
( 0.01050613727 -2.226775905e-05 1.93822616e-05 )
( 0.01050657779 -2.212039908e-05 1.940059337e-05 )
( 0.01143589895 -2.564261376e-05 3.020296936e-05 )
( 0.01143803541 -2.438966294e-05 3.030050539e-05 )
( 0.01106250845 -2.349303759e-05 2.910104922e-05 )
( 0.01105088554 -2.787173253e-05 2.797698107e-05 )
( 0.01052015554 -1.609761421e-05 1.98197813e-05 )
( 0.01052059792 -1.594539754e-05 1.985053495e-05 )
( 0.01006649248 -1.241160408e-05 1.17097652e-05 )
( 0.01005865261 -1.532389251e-05 1.118801356e-05 )
( 0.01004343666 -1.962022907e-05 1.029104078e-05 )
( 0.01005190238 -1.672588223e-05 1.076134777e-05 )
( 0.0095001515 -1.280444667e-05 2.228609219e-06 )
( 0.009494902566 -1.358029294e-05 2.428819244e-06 )
( 0.01298372075 2.054987999e-05 -2.385922744e-05 )
( 0.01262503117 -1.489095757e-05 -1.324820096e-05 )
( 0.01265146304 1.040474854e-05 -8.166504813e-06 )
( 0.01346156467 -8.675339632e-05 -6.114003918e-05 )
( 0.01195226144 -1.803974556e-05 1.951547529e-05 )
( 0.01197854057 1.521411605e-06 2.260786459e-05 )
( 0.01146513596 -9.271132512e-06 3.152972567e-05 )
( 0.01146328636 -1.053450615e-05 3.144927177e-05 )
( 0.008791967295 -8.610653822e-06 -5.918798252e-07 )
( 0.007354279514 4.318622757e-07 -3.913492947e-06 )
( 0.006397268269 2.481959655e-06 -5.973075531e-06 )
( 0.005352830049 3.030640073e-06 -7.145154541e-06 )
( 0.004269817378 2.849561952e-06 -7.264334272e-06 )
( 0.003220890649 2.283853973e-06 -6.301086614e-06 )
( 0.002272914164 1.513022426e-06 -4.889307547e-06 )
( 0.001462574815 8.035573273e-07 -3.360210485e-06 )
( 0.0007949801511 3.250123086e-07 -1.988684289e-06 )
( 0.0003604918602 1.346625567e-07 -9.545422017e-07 )
( 0.009053871036 -1.18561702e-05 -2.109038917e-07 )
( 0.009062002413 -9.354601389e-06 -4.162885716e-07 )
( 0.01007211022 -1.211452854e-05 1.234077536e-05 )
( 0.01007950958 -9.094406778e-06 1.255459847e-05 )
( 0.0110789109 -1.530509871e-05 3.030175503e-05 )
( 0.0110897515 -1.077029083e-05 3.068593287e-05 )
( 0.01054480113 -5.812637028e-06 2.224723175e-05 )
( 0.01054442488 -5.985707503e-06 2.221159048e-05 )
( 0.01053345669 -1.271905512e-05 2.103793486e-05 )
( 0.01053382736 -1.256547876e-05 2.10748949e-05 )
( 0.01008508075 -7.640553122e-06 1.254816107e-05 )
( 0.01009162609 -4.694239578e-06 1.292442721e-05 )
( 0.009526376612 -6.826596746e-06 3.105263204e-06 )
( 0.009522456676 -7.410597846e-06 2.91311494e-06 )
( 0.009509212337 -1.062062711e-05 2.582108891e-06 )
( 0.009513963945 -9.935397429e-06 2.572487574e-06 )
( 0.009075053036 -6.518500413e-06 -8.318069717e-07 )
( 0.009067579173 -9.012785085e-06 -6.513632229e-07 )
( 0.01301970519 8.339252236e-05 -8.991058166e-06 )
( 0.01267340966 3.65236483e-05 -2.353956233e-06 )
( 0.0126902042 6.443905295e-05 4.262367838e-06 )
( 0.01351122558 -2.031707845e-05 -4.677776815e-05 )
( 0.01200031862 2.147460327e-05 2.581059744e-05 )
( 0.01201910526 4.058068953e-05 2.945403867e-05 )
( 0.01148695126 5.080027222e-06 3.314897913e-05 )
( 0.01148864999 6.311451671e-06 3.331816697e-05 )
( 0.01150902268 2.279710316e-05 3.463329631e-05 )
( 0.01150772907 2.139387652e-05 3.450582517e-05 )
( 0.01111217029 2.700278401e-06 3.264172847e-05 )
( 0.01110383589 -1.797669938e-06 3.137130625e-05 )
( 0.008798338473 -7.236229521e-06 -8.728940202e-07 )
( 0.007356912829 1.194735205e-06 -4.618759249e-06 )
( 0.006397621706 3.072840627e-06 -6.707120974e-06 )
( 0.005351388827 3.398182798e-06 -7.843414096e-06 )
( 0.004267336801 3.080424449e-06 -7.735292456e-06 )
( 0.003218111815 2.404860425e-06 -6.677361853e-06 )
( 0.002270356519 1.590117563e-06 -5.236459401e-06 )
( 0.001460650587 8.333088317e-07 -3.678815119e-06 )
( 0.0007937886985 3.38619202e-07 -2.136378725e-06 )
( 0.0003598553594 1.380550572e-07 -1.08584311e-06 )
( 0.00953377597 -4.62821572e-06 3.679527708e-06 )
( 0.009537125006 -4.060700121e-06 3.682583156e-06 )
( 0.01055612415 -2.537701675e-06 2.371347728e-05 )
( 0.01055643801 -2.365391083e-06 2.373519237e-05 )
( 0.01056605298 4.871651072e-06 2.386709821e-05 )
( 0.01056569535 4.701043963e-06 2.385486732e-05 )
( 0.01011207327 3.668645604e-06 1.527228414e-05 )
( 0.01010655332 6.514080724e-07 1.445809539e-05 )
( 0.01009647828 -4.164748589e-06 1.347914531e-05 )
( 0.01010257564 -1.041338351e-06 1.394158335e-05 )
( 0.009544424713 -1.300616418e-06 3.87826185e-06 )
( 0.009546830319 -7.012834544e-07 4.220253686e-06 )
( 0.00909757521 -1.478154786e-06 -1.234233764e-06 )
( 0.009091335349 -3.88487797e-06 -1.170310725e-06 )
( 0.009080106393 -6.454827144e-06 -1.170627343e-06 )
( 0.009087081999 -4.092614745e-06 -1.185259407e-06 )
( 0.008810136467 -4.659609658e-06 -1.624060133e-06 )
( 0.008804284036 -6.100563496e-06 -1.212606321e-06 )
( 0.0130388923 0.000151452201 6.135391232e-06 )
( 0.01270350255 9.190062701e-05 1.057818008e-05 )
( 0.01271170471 0.0001208418253 1.669412632e-05 )
( 0.01355071086 5.354664972e-05 -2.999445496e-05 )
( 0.01203325111 5.985376629e-05 3.188742267e-05 )
( 0.01204156131 8.142500155e-05 3.384283991e-05 )
( 0.01152377855 3.715483035e-05 3.640218711e-05 )
( 0.01152478065 3.857496631e-05 3.645182733e-05 )
( 0.01153529715 5.369695282e-05 3.73732837e-05 )
( 0.01153610181 5.496721133e-05 3.743910565e-05 )
( 0.01112346351 1.08252425e-05 3.377024404e-05 )
( 0.0111306645 1.588463601e-05 3.381332499e-05 )
( 0.01114628091 2.993984526e-05 3.444565664e-05 )
( 0.01114089042 2.479828436e-05 3.438235581e-05 )
( 0.0105834268 1.559313569e-05 2.559472887e-05 )
( 0.01058316883 1.542132122e-05 2.555151514e-05 )
( 0.01057551801 8.26521682e-06 2.498761933e-05 )
( 0.01057577971 8.438775694e-06 2.503024007e-05 )
( 0.007359172218 1.964430339e-06 -5.357131158e-06 )
( 0.006397734396 3.557555374e-06 -7.436476153e-06 )
( 0.005349868909 3.7453608e-06 -8.347724361e-06 )
( 0.004264877178 3.25843439e-06 -8.026640899e-06 )
( 0.003215241712 2.547578333e-06 -6.999096058e-06 )
( 0.002267728327 1.65828601e-06 -5.534661796e-06 )
( 0.001458622166 8.749713061e-07 -3.835531061e-06 )
( 0.0007924883976 3.521408303e-07 -2.29406146e-06 )
( 0.0003592181311 1.414158959e-07 -1.152434038e-06 )
( 0.009100804105 -1.60238335e-06 -1.099315909e-06 )
( 0.009106450714 8.028343927e-07 -1.071757424e-06 )
( 0.0101155648 4.237397661e-06 1.625280674e-05 )
( 0.01012052223 7.393365195e-06 1.671011341e-05 )
( 0.01012809668 1.274054375e-05 1.683632581e-05 )
( 0.01012341212 9.42369843e-06 1.634695582e-05 )
( 0.009562778287 6.06990352e-06 5.502889962e-06 )
( 0.009560629725 5.172477358e-06 5.138112101e-06 )
( 0.009552875534 1.640410915e-06 4.665470897e-06 )
( 0.009555452503 2.366127774e-06 4.834753327e-06 )
( 0.009109297767 1.055607754e-06 -9.028357226e-07 )
( 0.009113913402 3.492601991e-06 -6.255390872e-07 )
( 0.008829928935 -8.587858247e-08 -2.588179314e-06 )
( 0.00882545393 -1.405259127e-06 -2.387459517e-06 )
( 0.008815553039 -3.712362513e-06 -2.056495077e-06 )
( 0.008820849471 -2.386364713e-06 -2.331570158e-06 )
( 0.01304194517 0.0002262722992 1.84258497e-05 )
( 0.01271553617 0.0001510054572 2.176168164e-05 )
( 0.01271484792 0.0001832660346 2.555182982e-05 )
( 0.01357973274 0.0001350246894 -1.395187428e-05 )
( 0.01204514597 0.0001034719608 3.522087354e-05 )
( 0.01204584446 0.0001254634844 3.494806151e-05 )
( 0.01154291816 6.943898916e-05 3.758270395e-05 )
( 0.01154331956 7.069491403e-05 3.755063153e-05 )
( 0.01154479384 8.759571938e-05 3.669936996e-05 )
( 0.01154496241 8.60903674e-05 3.67599132e-05 )
( 0.01115221903 3.865651888e-05 3.526089495e-05 )
( 0.01115604863 4.287162665e-05 3.5092904e-05 )
( 0.01116021536 5.234207129e-05 3.505685891e-05 )
( 0.01116093993 5.728888573e-05 3.506786015e-05 )
( 0.01058936119 1.972208702e-05 2.681379556e-05 )
( 0.01058954373 1.991543468e-05 2.681077422e-05 )
( 0.01059501339 2.703264909e-05 2.648886948e-05 )
( 0.01059482899 2.687151755e-05 2.649654198e-05 )
( 0.01060262974 3.814619777e-05 2.660898281e-05 )
( 0.01060251985 3.796300371e-05 2.658406083e-05 )
( 0.01059992891 3.099481182e-05 2.633148506e-05 )
( 0.01060004625 3.11586773e-05 2.633871009e-05 )
( 0.01013971306 2.224674063e-05 1.76244921e-05 )
( 0.01013638265 1.844165126e-05 1.733729732e-05 )
( 0.01013072487 1.329072984e-05 1.733695717e-05 )
( 0.01013461687 1.65715719e-05 1.749981129e-05 )
( 0.007361144293 2.664342901e-06 -6.166737876e-06 )
( 0.006397507153 4.139438715e-06 -8.22862421e-06 )
( 0.005348072853 4.083323802e-06 -8.930979675e-06 )
( 0.004261896946 3.521236749e-06 -8.57703526e-06 )
( 0.003212067997 2.680373655e-06 -7.466433544e-06 )
( 0.002264942275 1.73433807e-06 -5.851345122e-06 )
( 0.00145646208 9.077060099e-07 -4.094827091e-06 )
( 0.0007911457797 3.646088658e-07 -2.447359748e-06 )
( 0.0003585528757 1.441474211e-07 -1.222257765e-06 )
( 0.008833606727 6.90895547e-07 -2.601683263e-06 )
( 0.008837396279 1.937899015e-06 -2.549664714e-06 )
( 0.00956730824 8.137322766e-06 6.530483915e-06 )
( 0.009568816051 8.94081586e-06 6.410961305e-06 )
( 0.009575958364 1.29143873e-05 6.948199371e-06 )
( 0.009572409093 1.188742772e-05 6.778094303e-06 )
( 0.009126128629 9.050906556e-06 1.554440274e-07 )
( 0.009122029878 6.317422958e-06 -1.940353229e-07 )
( 0.009115952067 3.597550403e-06 -3.763215659e-07 )
( 0.009120381437 6.010618563e-06 -2.857239849e-07 )
( 0.008840682916 3.004566224e-06 -2.394691364e-06 )
( 0.008843442425 4.31494027e-06 -2.186945039e-06 )
( 0.007365061436 4.710775556e-06 -7.907344298e-06 )
( 0.007364161778 4.040240128e-06 -7.439223737e-06 )
( 0.007362780161 3.391894097e-06 -6.938529168e-06 )
( 0.01302943006 0.0003095977008 2.684881656e-05 )
( 0.01270940248 0.0002171400702 2.804181713e-05 )
( 0.01269950159 0.0002529436024 2.964520536e-05 )
( 0.01359541435 0.0002244239149 4.904462685e-07 )
( 0.01204184815 0.0001475081808 3.377395842e-05 )
( 0.01203218382 0.00017183811 3.196366015e-05 )
( 0.01154143643 0.0001048791237 3.521348117e-05 )
( 0.0115410639 0.0001064425815 3.501259562e-05 )
( 0.01153500099 0.0001247042237 3.105410724e-05 )
( 0.01153546479 0.0001232335489 3.143437789e-05 )
( 0.01116246823 6.58150384e-05 3.454731268e-05 )
( 0.01116137393 7.092735905e-05 3.401803042e-05 )
( 0.01115774456 8.529063052e-05 3.05707581e-05 )
( 0.01116002351 8.02598006e-05 3.241914601e-05 )
( 0.01060543675 4.12435511e-05 2.653683623e-05 )
( 0.01060537808 4.110255031e-05 2.654803393e-05 )
( 0.01060608774 4.793965854e-05 2.605732516e-05 )
( 0.01060602255 4.776386049e-05 2.610803858e-05 )
( 0.01060593873 5.196300481e-05 2.524562296e-05 )
( 0.0106058782 5.214801786e-05 2.524016418e-05 )
( 0.01060358994 5.879368109e-05 2.504153053e-05 )
( 0.01060359832 5.864202831e-05 2.506870806e-05 )
( 0.01014024578 2.330082498e-05 1.835128933e-05 )
( 0.01014289074 2.68245858e-05 1.866707498e-05 )
( 0.01014552172 3.248638313e-05 1.828662607e-05 )
( 0.01014303043 2.885952017e-05 1.845019324e-05 )
( 0.01014715061 4.10861212e-05 1.788261579e-05 )
( 0.01014576107 3.783511784e-05 1.812485971e-05 )
( 0.01014502998 3.274602204e-05 1.839437027e-05 )
( 0.01014707237 3.616252434e-05 1.814643292e-05 )
( 0.009581591934 2.082265382e-05 7.21564129e-06 )
( 0.009581759572 1.956050983e-05 7.173070117e-06 )
( 0.009579068981 1.538238394e-05 7.554127478e-06 )
( 0.009579155594 1.629671351e-05 7.605071005e-06 )
( 0.006397185847 4.590213393e-06 -8.75807109e-06 )
( 0.005345990881 4.450361303e-06 -9.39124493e-06 )
( 0.004258870613 3.745722324e-06 -8.973604963e-06 )