/*--------------------------------*- C++ -*----------------------------------*\
  =========                 |
  \\      /  F ield         | OpenFOAM: The Open Source CFD Toolbox
   \\    /   O peration     | Website:  https://openfoam.org
    \\  /    A nd           | Version:  8
     \\/     M anipulation  |
\*---------------------------------------------------------------------------*/






FoamFile
{
    version     2.0;
    format      ascii;
    class       volScalarField;
    location    "0";
    object      V;
}
// * * * * * * * * * * * * * * * * * * * * * * * * * * * * * * * * * * * * * //

dimensions      [0 3 0 0 0 0 0];


internalField   nonuniform List<scalar> 
22462
(
3.124823627e-06
3.867011681e-06
3.125132627e-06
4.785481581e-06
3.867371309e-06
3.125150377e-06
5.922104372e-06
4.785894625e-06
3.867384337e-06
3.124715627e-06
7.328696323e-06
5.922569526e-06
4.785899115e-06
3.866857658e-06
3.125040877e-06
9.069382992e-06
7.329206534e-06
5.922560444e-06
4.785267488e-06
3.867238015e-06
3.125159502e-06
1.122352371e-05
9.069919283e-06
7.32917632e-06
5.921813207e-06
4.785706572e-06
3.867373047e-06
3.125124252e-06
1.3889328e-05
1.122404632e-05
9.069858022e-06
7.328308241e-06
5.922310823e-06
4.785857584e-06
3.867324544e-06
3.125049627e-06
1.718833862e-05
1.388976798e-05
1.122394143e-05
9.068874553e-06
7.328857452e-06
5.922475415e-06
4.785792285e-06
3.867229433e-06
3.124847252e-06
2.127097604e-05
1.718857636e-05
1.388959943e-05
1.122286769e-05
9.069456941e-06
7.329030349e-06
5.922388795e-06
4.785671932e-06
3.866983075e-06
3.124958502e-06
2.19140218e-05
2.127080981e-05
1.718831842e-05
1.388849969e-05
1.122344603e-05
9.069627704e-06
7.328916827e-06
5.922238237e-06
4.785374411e-06
3.867111117e-06
3.125055752e-06
2.475691112e-05
2.191362892e-05
2.127042784e-05
1.718731581e-05
1.388900197e-05
1.122359626e-05
9.069481942e-06
7.328730845e-06
5.921882931e-06
4.785519798e-06
3.867223405e-06
3.124834502e-06
2.889214603e-05
2.475657855e-05
2.191323527e-05
2.126974629e-05
1.718761966e-05
1.388910174e-05
1.122341159e-05
9.069254366e-06
7.328312972e-06
5.922043835e-06
4.785646868e-06
3.866956401e-06
3.124821002e-06
3.359054285e-05
2.889190581e-05
2.475625768e-05
2.191286645e-05
2.126964747e-05
1.718761798e-05
1.388887069e-05
1.122313768e-05
9.068773298e-06
7.328484754e-06
5.922184719e-06
4.785328109e-06
3.866937921e-06
3.125228252e-06
0.0001019671382
3.359047729e-05
2.889168843e-05
2.475595418e-05
2.191253945e-05
2.126946155e-05
1.718733716e-05
1.388855013e-05
1.122260178e-05
9.068947338e-06
7.328635612e-06
5.921808715e-06
4.785303237e-06
3.86742188e-06
3.125095002e-06
0.0001129445123
0.0001019670748
3.359028138e-05
2.88914613e-05
2.475566954e-05
2.191226689e-05
2.126913143e-05
1.718697219e-05
1.388798105e-05
1.122275958e-05
9.069098813e-06
7.328199877e-06
5.921776168e-06
4.785872011e-06
3.867261841e-06
3.125297877e-06
0.000322973189
0.0001129444414
3.35902318e-05
0.0001019668317
2.889125629e-05
2.475540269e-05
2.19119748e-05
2.126873521e-05
1.718641808e-05
1.388809118e-05
1.122289715e-05
9.068607087e-06
7.328157707e-06
5.922434214e-06
4.785681696e-06
3.867502209e-06
3.125345877e-06
0.0003229733843
0.0003458425602
0.0001129444947
3.359000384e-05
0.000101966367
3.358996073e-05
2.889103137e-05
2.475513963e-05
2.191166097e-05
2.126828548e-05
1.718642771e-05
1.388818805e-05
1.122236176e-05
9.068552916e-06
7.328903049e-06
5.922211592e-06
4.785963243e-06
3.867557672e-06
3.124864377e-06
0.0003229717893
0.0001129440613
0.000345841661
0.0009473116908
3.358962996e-05
0.0001019656341
3.358967568e-05
2.889082587e-05
2.475488404e-05
2.19113852e-05
2.126810917e-05
1.718643891e-05
1.388764046e-05
1.122229407e-05
9.069371026e-06
7.328647599e-06
5.922535823e-06
4.786025861e-06
3.866980974e-06
3.124366377e-06
0.0001129436545
0.0003229689919
0.0003458413622
0.0001129427871
0.0009473027327
0.0009896807338
3.358929098e-05
2.889059348e-05
0.0001019647174
3.35892544e-05
2.475464315e-05
2.19111605e-05
2.126796131e-05
1.718594063e-05
1.388755754e-05
1.122314785e-05
9.069086971e-06
7.329013031e-06
5.9226042e-06
4.785342413e-06
3.866385909e-06
3.125177627e-06
0.0003458378286
0.0001129420478
0.0001129409928
0.0003229655175
0.0009472859517
0.0009896644306
2.889039087e-05
3.358887223e-05
0.0001019636977
3.358888055e-05
2.889016795e-05
2.475443209e-05
2.191098441e-05
2.126762193e-05
1.718584184e-05
1.388837335e-05
1.122284679e-05
9.069484389e-06
7.329084337e-06
5.921805059e-06
4.784638008e-06
3.867351772e-06
3.125126127e-06
0.0003458363887
0.0001019626852
0.0001129403053
0.0003229628045
0.0001129393784
0.0003458312948
0.0009472584527
0.0009896404545
3.358849319e-05
2.888980848e-05
3.358851791e-05
2.888999278e-05
2.4754255e-05
2.191084818e-05
2.126750862e-05
1.718648474e-05
1.38880788e-05
1.122325551e-05
9.069552513e-06
7.328165718e-06
5.920982663e-06
4.785775448e-06
3.867289333e-06
3.124356502e-06
3.3588179e-05
3.358813554e-05
0.0001019617251
0.0003229604006
0.0001129384585
0.0001129390825
0.0001019609601
0.0003458297354
0.0009472149082
0.0003458229664
0.0009896039925
2.888968217e-05
2.475412095e-05
2.888953594e-05
2.191078623e-05
2.12677467e-05
1.718624217e-05
1.388845842e-05
1.122330953e-05
9.06852449e-06
7.327224526e-06
5.922302112e-06
4.785700354e-06
3.866370907e-06
3.125135127e-06
2.888928602e-05
3.358779525e-05
2.888943131e-05
3.358785733e-05
0.0001129387364
0.0003229583887
0.0001129382415
0.0001019602519
0.0001019604254
3.358759669e-05
3.358750272e-05
0.0009471472652
0.0003458200129
0.000345808854
0.0009895486362
2.475402338e-05
2.475396192e-05
2.191077684e-05
2.126763403e-05
1.71865194e-05
1.38884806e-05
1.122220472e-05
9.067476986e-06
7.328722796e-06
5.922212579e-06
4.784616194e-06
3.867298375e-06
3.124939752e-06
2.888917114e-05
2.475382802e-05
2.475390071e-05
2.888901893e-05
0.0001019602939
0.000322954599
0.000112938032
0.0001129388369
0.0001019605692
3.358742601e-05
3.358724542e-05
3.358730915e-05
3.358744828e-05
2.888879818e-05
2.888891799e-05
0.0009470477054
0.0003458023421
0.0003457850492
0.0009894655399
0.0003229492268
2.191079241e-05
2.126768439e-05
1.718647848e-05
1.388736883e-05
1.122108804e-05
9.069125032e-06
7.328617978e-06
5.92095164e-06
4.785708951e-06
3.867065874e-06
3.124928002e-06
2.475371404e-05
2.191074587e-05
2.475359728e-05
3.358731085e-05
3.358751893e-05
0.0001129386375
0.0001129372139
0.0001019609557
0.0001019607481
3.358744419e-05
3.358762982e-05
2.88886811e-05
2.888868191e-05
2.888874602e-05
2.888868142e-05
2.475340324e-05
2.475348392e-05
0.0009469060651
0.0003457748101
0.0003457512861
0.0009893418467
0.0003229407384
0.0003229307423
0.0001129354643
0.0001129375825
2.126753128e-05
1.718549578e-05
1.388626252e-05
1.122281236e-05
9.069005238e-06
7.327181172e-06
5.922220012e-06
4.785435385e-06
3.867051877e-06
3.124313127e-06
2.191061568e-05
2.191040923e-05
2.888874412e-05
2.888879635e-05
0.0001019608893
0.0001019607682
3.358775258e-05
3.358763228e-05
3.358755202e-05
3.358770296e-05
2.888887462e-05
2.888889689e-05
2.475329617e-05
2.475328608e-05
2.475334325e-05
2.475330316e-05
2.191021961e-05
2.191027878e-05
0.0009467018524
0.000345737856
0.0003457068869
0.0009891584542
0.000322917918
0.0003229047625
0.0001129357314
0.0001129329749
0.0001129297451
0.0001129332493
0.0001019597272
0.0001019602421
2.126691648e-05
1.718454818e-05
1.388791585e-05
1.122267999e-05
9.067417166e-06
7.328622906e-06
5.921903494e-06
4.785419505e-06
3.866321489e-06
3.125942127e-06
2.475334741e-05
2.475343317e-05
3.358772727e-05
3.358779892e-05
3.358778911e-05
3.358779098e-05
2.888895826e-05
2.88889317e-05
2.888891964e-05
2.888890694e-05
2.475351176e-05
2.475353104e-05
2.191014596e-05
2.19100939e-05
2.191016583e-05
2.191012298e-05
2.126688919e-05
2.126639128e-05
0.000946398151
0.0003456881245
0.0003456451736
0.0009888861529
0.0003228892557
0.0003228737101
0.0001129302299
0.0001129258868
0.0001129268586
0.0001129217231
0.0001019588675
0.000101958193
0.0001019562259
0.0001019571226
3.358760009e-05
3.358777066e-05
3.358781098e-05
3.358772159e-05
1.718585999e-05
1.388777666e-05
1.122100638e-05
9.069005695e-06
7.328264912e-06
5.921885863e-06
4.784562033e-06
3.868266786e-06
3.126737127e-06
2.191015757e-05
2.191037026e-05
2.888902307e-05
2.888907774e-05
2.888918999e-05
2.888913858e-05
2.475343758e-05
2.475339064e-05
2.47534713e-05
2.475341041e-05
2.191064329e-05
2.191068732e-05
2.126667967e-05
2.126672353e-05
2.12667864e-05
2.126619235e-05
0.0009459360652
0.0003456146651
0.0003455522537
0.0009884803331
0.0003228540484
0.0003228323396
0.0001129236458
0.0001129175863
0.000112913063
0.0001129204306
0.0001019547778
0.0001019536513
0.0001019520474
0.000101951104
3.358772347e-05
3.358748205e-05
3.358737951e-05
3.358768801e-05
3.358709638e-05
3.358760808e-05
3.358767468e-05
3.358727852e-05
2.888932364e-05
2.888929198e-05
2.888923439e-05
2.888927374e-05
1.71857265e-05
1.388615204e-05
1.122267268e-05
9.0686149e-06
7.328246168e-06
5.920896109e-06
4.78686131e-06
3.86921663e-06
3.124347877e-06
2.126673385e-05
2.126664555e-05
2.475351659e-05
2.475361333e-05
2.475381463e-05
2.475371166e-05
2.191046317e-05
2.191033957e-05
2.191051078e-05
2.191027666e-05
2.126825531e-05
2.126898121e-05
1.718541862e-05
1.71856905e-05
1.71843998e-05
0.0009452232967
0.0003454989648
0.0003454073294
0.0009878742474
0.0003228028785
0.0003227678436
0.0001129169475
0.0001129078928
0.0001129014259
0.0001129126968
0.0001019496446
0.0001019489549
0.0001019467311
0.0001019474222
3.358684621e-05
3.358746894e-05
3.358654128e-05
3.358725945e-05
3.358707682e-05
3.358628086e-05
3.358604523e-05
3.358692597e-05
2.888933616e-05
2.888939296e-05
2.888952513e-05
2.888943018e-05
2.888974921e-05
2.888968859e-05
2.888957479e-05
2.888967376e-05
2.475418711e-05
2.475410941e-05
2.475392046e-05
2.475402031e-05
1.388775789e-05
1.122227074e-05
9.068597349e-06
7.327131367e-06
5.923576277e-06
4.78798437e-06
3.866368988e-06
3.124619252e-06
1.718543523e-05
1.718461991e-05
2.191064653e-05
2.191081741e-05
2.191120472e-05
2.191101217e-05
2.126811048e-05
2.126754861e-05
2.126717361e-05
2.126721142e-05
1.718764287e-05
1.718908705e-05
1.38873849e-05
0.0009441141902
0.0003453119673
0.000345176918
0.0009869704818
0.0003227205383
0.0003226625735
0.0001129072681
0.0001128930739
0.0001128819495
0.0001128997572
0.0001019449079
0.0001019441205
0.0001019408166
0.0001019418718
3.358686004e-05
3.35858814e-05
3.358569222e-05
3.358680587e-05
3.358520305e-05
3.358667369e-05
3.358677688e-05
3.358549579e-05
2.888972741e-05
2.888970516e-05
2.888967476e-05
2.888964762e-05
2.888960587e-05
2.888966046e-05
2.888968978e-05
2.888959924e-05
2.475426771e-05
2.47543709e-05
2.475468108e-05
2.475451297e-05
2.475528377e-05
2.4755168e-05
2.475485489e-05
2.475501625e-05
2.191197029e-05
2.191182021e-05
2.191141143e-05
2.19116355e-05
1.122225732e-05
9.067385471e-06
7.330194716e-06
5.924885153e-06
4.78462676e-06
3.866693578e-06
3.124763252e-06
1.388738081e-05
1.38862352e-05
2.126817895e-05
2.126881356e-05
2.126937818e-05
2.126916704e-05
1.718660501e-05
1.718579078e-05
1.718501081e-05
1.718538481e-05
1.388980415e-05
1.389152975e-05
0.0009423769763
0.0003450037355
0.000344802765
0.0009856309994
0.0003225859085
0.0003224877981
0.0001128897785
0.0001128676803
0.0001128493637
0.0001128766251
0.0001019378152
0.0001019361436
0.0001019295042
0.0001019320014
3.358656917e-05
3.358490144e-05
3.35845116e-05
3.358640211e-05
3.358355264e-05
3.358599471e-05
3.358625372e-05
3.358410963e-05
2.888964666e-05
2.888976858e-05
2.888984461e-05
2.88897177e-05
2.88898324e-05
2.888974248e-05
2.88897667e-05
2.888987485e-05
2.475540462e-05
2.475536473e-05
2.475551012e-05
2.475545232e-05
2.47555905e-05
2.475565903e-05
2.475582624e-05
2.475574224e-05
2.19121141e-05
2.191226766e-05
2.191284934e-05
2.191253004e-05
2.191393623e-05
2.191366522e-05
2.191317239e-05
2.19133958e-05
2.12709585e-05
2.127073186e-05
2.126990553e-05
2.127035735e-05
1.122101364e-05
9.070788464e-06
7.331689974e-06
5.920983813e-06
4.785010132e-06
3.866869118e-06
3.125120627e-06
1.718612898e-05
1.718702258e-05
1.718708187e-05
1.718721124e-05
1.388835298e-05
1.388746284e-05
1.388652547e-05
1.388705025e-05
1.122463216e-05
1.12263909e-05
0.0003444840343
0.0003441775536
0.0009836731318
0.0003223595358
0.0003221885084
0.0001128594892
0.0001128257475
0.0001127946366
0.0001128365187
0.0001019240733
0.0001019207155
0.0001019093577
0.0001019137995
3.358570683e-05
3.35829402e-05
3.358212318e-05
3.358525828e-05
3.358008188e-05
3.358408003e-05
3.358477149e-05
3.358122974e-05
2.888966276e-05
2.888974814e-05
2.888962979e-05
2.888954115e-05
2.888921183e-05
2.888915771e-05
2.888939126e-05
2.888946561e-05
2.47559373e-05
2.475604089e-05
2.47562444e-05
2.475615566e-05
2.475641112e-05
2.475641169e-05
2.475633123e-05
2.475637432e-05
2.191411497e-05
2.191409297e-05
2.191438091e-05
2.191418389e-05
2.191454793e-05
2.191466116e-05
2.19149304e-05
2.191477183e-05
2.127116752e-05
2.12714886e-05
2.127255214e-05
2.12716435e-05
2.127451268e-05
2.127340537e-05
2.127317895e-05
2.127337603e-05
1.718837574e-05
1.718835205e-05
1.718767822e-05
1.718806036e-05
9.072447477e-06
7.327249576e-06
5.921428944e-06
4.78522254e-06
3.867300392e-06
3.124682252e-06
1.388761724e-05
1.388858483e-05
1.38883642e-05
1.388866893e-05
1.122305166e-05
1.122218287e-05
1.122122887e-05
1.122179686e-05
0.0003219671004
0.000321657087
0.0001128053017
0.0001127533394
0.0001126988678
0.0001127629784
0.0001019005077
0.0001018944403
0.0001018740851
0.0001018827739
3.358336722e-05
3.357888051e-05
3.357741917e-05
3.358246083e-05
3.357397031e-05
3.358034804e-05
3.358154195e-05
3.357587594e-05
2.888884996e-05
2.888889268e-05
2.888850361e-05
2.888846443e-05
2.888746505e-05
2.888745923e-05
2.888801953e-05
2.88880418e-05
2.475641567e-05
2.475639033e-05
2.47563443e-05
2.475638316e-05
2.475603346e-05
2.475616413e-05
2.475632145e-05
2.475624164e-05
2.191509104e-05
2.191526038e-05
2.191558022e-05
2.191542495e-05
2.19158521e-05
2.191583107e-05
2.19156967e-05
2.191578224e-05
2.127414775e-05
2.127487478e-05
2.12750342e-05
2.127425227e-05
2.127528317e-05
2.127503916e-05
2.12756189e-05
2.127535913e-05
1.718838868e-05
1.718866193e-05
1.718969515e-05
1.718833475e-05
1.719171098e-05
1.718972913e-05
1.719039505e-05
1.719030489e-05
1.388939946e-05
1.388949029e-05
1.388895308e-05
1.388926676e-05
9.067544851e-06
7.327753931e-06
5.921683222e-06
4.785737677e-06
3.866783731e-06
3.125062377e-06
1.122222505e-05
1.122316402e-05
1.122280283e-05
1.122318437e-05
9.069238287e-06
9.068441219e-06
9.068095844e-06
0.0001127050004
0.0001126255182
0.0001125257296
0.0001126249408
0.0001018584261
0.0001018460981
0.0001018081439
0.0001018253615
3.357911574e-05
3.357194721e-05
3.356944063e-05
3.3577526e-05
3.356320482e-05
3.357352151e-05
3.357580524e-05
3.356668176e-05
2.888682027e-05
2.888683499e-05
2.888613215e-05
2.888611068e-05
2.888432421e-05
2.88843486e-05
2.888531753e-05
2.888531048e-05
2.475592872e-05
2.475578504e-05
2.475552645e-05
2.475567924e-05
2.475485321e-05
2.475508347e-05
2.475541509e-05
2.475523747e-05
2.191586312e-05
2.191586113e-05
2.191586263e-05
2.191585409e-05
2.191557225e-05
2.191571588e-05
2.191585703e-05
2.191582368e-05
2.127572339e-05
2.127597797e-05
2.127638092e-05
2.127629908e-05
2.127676664e-05
2.127670451e-05
2.127660855e-05
2.127673845e-05
1.719034623e-05
1.719217286e-05
1.719179008e-05
1.719039601e-05
1.719199847e-05
1.719116275e-05
1.719194416e-05
1.719167261e-05
1.388930277e-05
1.38895275e-05
1.389046564e-05
1.388896316e-05
1.389235776e-05
1.389005122e-05
1.389115303e-05
1.389091253e-05
1.122361628e-05
1.122376552e-05
1.122334449e-05
1.122359696e-05
7.328053606e-06
5.922290866e-06
4.785136586e-06
3.867243166e-06
3.125012627e-06
9.068417263e-06
9.069275025e-06
9.068858208e-06
9.069258063e-06
7.328758081e-06
0.0001017805345
0.0001017561308
0.0001016826548
0.000101718576
3.357095969e-05
3.355932698e-05
3.355456319e-05
3.35676762e-05
3.354282878e-05
3.355946819e-05
3.356403893e-05
3.354927429e-05
2.888325812e-05
2.888321967e-05
2.888191449e-05
2.888198112e-05
2.887847612e-05
2.887870919e-05
2.888051509e-05
2.888038147e-05
2.475467089e-05
2.475444419e-05
2.475405194e-05
2.475429033e-05
2.475284017e-05
2.475322319e-05
2.47538442e-05
2.475350751e-05
2.191544868e-05
2.191536092e-05
2.19151424e-05
2.191525287e-05
2.191463604e-05
2.19148388e-05
2.191505682e-05
2.191498489e-05
2.12767448e-05
2.127673804e-05
2.127670824e-05
2.12767322e-05
2.127641642e-05
2.127669704e-05
2.127685893e-05
2.127685211e-05
1.719185211e-05
1.719210151e-05
1.719240088e-05
1.719252097e-05
1.719274073e-05
1.71926333e-05
1.719269879e-05
1.719282449e-05
1.389054656e-05
1.389283665e-05
1.389217893e-05
1.389055988e-05
1.389234816e-05
1.389125188e-05
1.389207951e-05
1.389182416e-05
1.122346324e-05
1.122364353e-05
1.122446078e-05
1.12229873e-05
1.122614582e-05
1.122382538e-05
1.122509224e-05
1.122478397e-05
9.069486711e-06
9.069660603e-06
9.069335314e-06
9.069535977e-06
5.921603623e-06
4.785686778e-06
3.867191045e-06
3.124775877e-06
7.327992324e-06
7.328748763e-06
7.328325343e-06
7.328710134e-06
3.355432406e-05
3.353557727e-05
3.352670418e-05
3.354786191e-05
3.350377628e-05
3.353084486e-05
3.354037015e-05
3.351646336e-05
2.887655059e-05
2.887621411e-05
2.887350937e-05
2.887395492e-05
2.886650289e-05
2.886730041e-05
2.887093556e-05
2.887033455e-05
2.475253072e-05
2.475209982e-05
2.475124995e-05
2.475173909e-05
2.474900909e-05
2.47497388e-05
2.475084381e-05
2.475026468e-05
2.191442894e-05
2.191428473e-05
2.191414558e-05
2.19142136e-05
2.191313889e-05
2.191337261e-05
2.191395303e-05
2.191367568e-05
2.127616482e-05
2.127622796e-05
2.127575857e-05
2.127620365e-05
2.127514305e-05
2.127565604e-05
2.127573959e-05
2.127594918e-05
1.719266024e-05
1.719264661e-05
1.719256071e-05
1.719264173e-05
1.719239925e-05
1.719277892e-05
1.719291248e-05
1.719294647e-05
1.389188806e-05
1.389211435e-05
1.389233505e-05
1.389255535e-05
1.389262133e-05
1.389249883e-05
1.389264842e-05
1.38927612e-05
1.122421176e-05
1.122659932e-05
1.122582808e-05
1.122420167e-05
1.122596146e-05
1.122479784e-05
1.122558923e-05
1.122536195e-05
9.069311213e-06
9.069451843e-06
9.070144816e-06
9.068787742e-06
9.071595577e-06
9.069425551e-06
9.070701237e-06
9.07037496e-06
7.32880317e-06
7.328981494e-06
7.328733903e-06
7.328891017e-06
5.922254417e-06
4.785634539e-06
3.866915601e-06
3.124964752e-06
5.921852003e-06
5.922205657e-06
2.886300824e-05
2.886195083e-05
2.885641937e-05
2.88578159e-05
2.884144095e-05
2.88439409e-05
2.885159704e-05
2.884972645e-05
2.474835562e-05
2.474748873e-05
2.474570883e-05
2.474671991e-05
2.474088543e-05
2.474239292e-05
2.47447826e-05
2.474355067e-05
2.191287862e-05
2.191258872e-05
2.191197434e-05
2.191227874e-05
2.191049499e-05
2.191097946e-05
2.191168593e-05
2.19113819e-05
2.127490265e-05
2.127467713e-05
2.127483429e-05
2.127448998e-05
2.127337608e-05
2.127352964e-05
2.127466829e-05
2.127369696e-05
1.719203859e-05
1.719236109e-05
1.719172035e-05
1.719252924e-05
1.719140617e-05
1.71921586e-05
1.719186358e-05
1.719252952e-05
1.389251552e-05
1.389249788e-05
1.389238852e-05
1.389249491e-05
1.389231146e-05
1.389271683e-05
1.389282417e-05
1.389287857e-05
1.122535477e-05
1.122555179e-05
1.122571254e-05
1.122597352e-05
1.122594654e-05
1.122582545e-05
1.122601098e-05
1.12261089e-05
9.06971965e-06
9.072002364e-06
9.071213686e-06
9.069693928e-06
9.071316559e-06
9.070192128e-06
9.070907115e-06
9.070711624e-06
7.328624755e-06
7.32873255e-06
7.329308292e-06
7.328105345e-06
7.330528882e-06
7.328585396e-06
7.32978527e-06
7.329468926e-06
5.922210056e-06
5.922380663e-06
5.922195084e-06
5.922316529e-06
4.785319015e-06
3.867148472e-06
3.125016752e-06
2.47394558e-05
2.473761919e-05
2.473361276e-05
2.473584839e-05
2.472251786e-05
2.472593442e-05
2.473143059e-05
2.472868385e-05
2.19099714e-05
2.19094483e-05
2.190829919e-05
2.190888419e-05
2.190496018e-05
2.190595376e-05
2.190761414e-05
2.190685671e-05
2.127296347e-05
2.127270585e-05
2.127194181e-05
2.12723362e-05
2.127063322e-05
2.127127279e-05
2.127172752e-05
2.127168273e-05
1.719129844e-05
1.719110498e-05
1.719183743e-05
1.719084042e-05
1.71904654e-05
1.719036573e-05
1.719186467e-05
1.719015423e-05
1.389191843e-05
1.389235782e-05
1.389167218e-05
1.389261821e-05
1.389154463e-05
1.389237233e-05
1.389189439e-05
1.389275762e-05
1.122583349e-05
1.122581525e-05
1.122570133e-05
1.122581364e-05
1.122567683e-05
1.12260683e-05
1.122615233e-05
1.122621489e-05
9.070663e-06
9.070830372e-06
9.070944967e-06
9.071211656e-06
9.071132229e-06
9.071020517e-06
9.071214697e-06
9.071297148e-06
7.328803417e-06
7.330881089e-06
7.330128553e-06
7.328768438e-06
7.330205963e-06
7.329175221e-06
7.329798438e-06
7.329634413e-06
5.922038913e-06
5.922120356e-06
5.922591461e-06
5.921552201e-06
5.923601616e-06
5.921908447e-06
5.922992821e-06
5.92270077e-06
4.785582796e-06
4.785739986e-06
4.785603254e-06
4.785695993e-06
3.867218271e-06
3.125035127e-06
2.190384314e-05
2.190259761e-05
2.189962457e-05
2.190116994e-05
2.189123958e-05
2.189374786e-05
2.18978892e-05
2.189598194e-05
2.127010875e-05
2.126975901e-05
2.126870807e-05
2.126924989e-05
2.126610621e-05
2.126687774e-05
2.126839177e-05
2.126763783e-05
1.71899713e-05
1.718990895e-05
1.718918099e-05
1.718958239e-05
1.718842144e-05
1.718915083e-05
1.718912755e-05
1.718949954e-05
1.389151639e-05
1.389135488e-05
1.3892346e-05
1.389106788e-05
1.389112077e-05
1.389089111e-05
1.389247562e-05
1.389049228e-05
1.122529466e-05
1.122576725e-05
1.122510626e-05
1.12260603e-05
1.122509137e-05
1.122590135e-05
1.122535703e-05
1.122626789e-05
9.071022237e-06
9.071004636e-06
9.070896668e-06
9.071003978e-06
9.070903743e-06
9.071260846e-06
9.071325848e-06
9.071389621e-06
7.329564054e-06
7.329702694e-06
7.329783216e-06
7.330035901e-06
7.32992984e-06
7.329831006e-06
7.330018971e-06
7.330086228e-06
5.922065693e-06
5.923899292e-06
5.923209933e-06
5.922026669e-06
5.923266915e-06
5.922352387e-06
5.922882774e-06
5.922747712e-06
4.785425194e-06
4.785485467e-06
4.785866879e-06
4.784984454e-06
4.786691704e-06
4.785245222e-06
4.786199678e-06
4.785938082e-06
3.867106098e-06
3.867247493e-06
3.124910127e-06
2.12651156e-05
2.126420596e-05
2.126154586e-05
2.126300108e-05
2.125482102e-05
2.125701936e-05
2.126038871e-05
2.12588978e-05
1.718797558e-05
1.718793516e-05
1.718706875e-05
1.718752723e-05
1.718552734e-05
1.71859615e-05
1.718725447e-05
1.718652103e-05
1.389061945e-05
1.389066635e-05
1.389001211e-05
1.38903883e-05
1.38896046e-05
1.389033021e-05
1.389005065e-05
1.389062051e-05
1.122510754e-05
1.122497598e-05
1.12260411e-05
1.122469746e-05
1.122498246e-05
1.122469703e-05
1.122621754e-05
1.122422426e-05
9.070553997e-06
9.071013433e-06
9.070412138e-06
9.071305412e-06
9.07046156e-06
9.071206907e-06
9.07066143e-06
9.071538634e-06
7.329828825e-06
7.329812286e-06
7.329714816e-06
7.329811982e-06
7.329740205e-06
7.330054965e-06
7.330104252e-06
7.3301653e-06
5.922667635e-06
5.922780726e-06
5.922836046e-06
5.923065288e-06
5.922948839e-06
5.922863701e-06
5.923037146e-06
5.923091291e-06
4.785354881e-06
4.786939167e-06
4.786324298e-06
4.785314649e-06
4.78636546e-06
4.785571603e-06
4.78601494e-06
4.785905491e-06
3.866964844e-06
3.8670083e-06
3.867314156e-06
3.866574845e-06
3.867980923e-06
3.866762421e-06
3.867587453e-06
3.867358006e-06
3.124785752e-06
1.718469267e-05
1.718427474e-05
1.718208104e-05
1.718337944e-05
1.717783098e-05
1.717946044e-05
1.718170071e-05
1.718081054e-05
1.388923204e-05
1.388936008e-05
1.388865497e-05
1.388903657e-05
1.388779389e-05
1.388801564e-05
1.388909724e-05
1.388842752e-05
1.12245133e-05
1.12246168e-05
1.12240505e-05
1.12243847e-05
1.122386408e-05
1.122453759e-05
1.122413602e-05
1.122477549e-05
9.070501055e-06
9.070394999e-06
9.071431818e-06
9.070141718e-06
9.07053766e-06
9.070240112e-06
9.071622164e-06
9.069758237e-06
7.329431549e-06
7.329854916e-06
7.329326488e-06
7.330127229e-06
7.329409922e-06
7.330070941e-06
7.329559173e-06
7.330360957e-06
5.9228586e-06
5.922844068e-06
5.922758697e-06
5.922843761e-06
5.922794175e-06
5.923064947e-06
5.923101683e-06
5.92315728e-06
4.785823556e-06
4.785914474e-06
4.785951101e-06
4.786153723e-06
4.786036493e-06
4.785964787e-06
4.786119865e-06
4.786163072e-06
3.866835731e-06
3.868184317e-06
3.86764569e-06
3.86679604e-06
3.867674541e-06
3.866996152e-06
3.867361987e-06
3.867274375e-06
3.124816252e-06
3.125059502e-06
3.124446127e-06
3.125594504e-06
3.124578128e-06
3.125282252e-06
3.125083877e-06
1.388710345e-05
1.388698143e-05
1.388519807e-05
1.38863168e-05
1.388259054e-05
1.388379573e-05
1.388526401e-05
1.388476333e-05
1.122355762e-05
1.122376759e-05
1.122320006e-05
1.122351247e-05
1.122276958e-05
1.122285975e-05
1.122375087e-05
1.122316227e-05
9.070118388e-06
9.070247038e-06
9.069768475e-06
9.070056399e-06
9.069718388e-06
9.070318201e-06
9.069875333e-06
9.070510568e-06
7.329459951e-06
7.329375611e-06
7.33033025e-06
7.329153421e-06
7.329587882e-06
7.329302769e-06
7.3305171e-06
7.328846486e-06
5.92252799e-06
5.922904623e-06
5.922451043e-06
5.92314931e-06
5.922550053e-06
5.923121947e-06
5.922660769e-06
5.923369798e-06
4.785957761e-06
4.785945086e-06
4.785871912e-06
4.785945178e-06
4.785911887e-06
4.786140901e-06
4.786168096e-06
4.786217317e-06
3.867195018e-06
3.867267485e-06
3.867290405e-06
3.867466014e-06
3.867353988e-06
3.867294311e-06
3.86743029e-06
3.867464454e-06
3.124624254e-06
3.125759754e-06
3.125294129e-06
3.124586504e-06
3.125313504e-06
3.124740379e-06
3.125039379e-06
3.124970004e-06
1.122220683e-05
1.122225425e-05
1.122082247e-05
1.122176294e-05
1.121929825e-05
1.122018651e-05
1.122112801e-05
1.122087678e-05
9.069469272e-06
9.069710131e-06
9.069256984e-06
9.069509803e-06
9.069094148e-06
9.069104846e-06
9.069830095e-06
9.069327002e-06
7.329224254e-06
7.329359308e-06
7.328961811e-06
7.329205112e-06
7.32899323e-06
7.329512556e-06
7.329074869e-06
7.329666934e-06
5.922602773e-06
5.922536673e-06
5.923386132e-06
5.922346517e-06
5.922777542e-06
5.922516505e-06
5.923559781e-06
5.922103227e-06
4.785686492e-06
4.786013756e-06
4.785631131e-06
4.786228146e-06
4.785733796e-06
4.786220106e-06
4.78581507e-06
4.786428794e-06
3.867286599e-06
3.86727529e-06
3.86721386e-06
3.867275636e-06
3.86725453e-06
3.867445829e-06
3.867465633e-06
3.867508569e-06
3.124895629e-06
3.124952879e-06
3.124966129e-06
3.125116129e-06
3.125012504e-06
3.124963379e-06
3.125080879e-06
3.125107629e-06
9.068640588e-06
9.068778749e-06
9.06764015e-06
9.068417962e-06
9.066824318e-06
9.067476162e-06
9.068059692e-06
9.06796464e-06
7.328792197e-06
7.329034975e-06
7.328675542e-06
7.328877795e-06
7.328674111e-06
7.328638991e-06
7.32922393e-06
7.328801964e-06
5.922468625e-06
5.922599335e-06
5.92227368e-06
5.922475797e-06
5.922350775e-06
5.922791777e-06
5.922383544e-06
5.922914713e-06
4.785785166e-06
4.785733607e-06
4.786472754e-06
4.785573866e-06
4.785978547e-06
4.785746673e-06
4.786628517e-06
4.785382628e-06
3.867066085e-06
3.867345963e-06
3.867027165e-06
3.867530657e-06
3.867126732e-06
3.867535066e-06
3.867185634e-06
3.867708638e-06
3.124955379e-06
3.124945629e-06
3.124894504e-06
3.124946004e-06
3.124933879e-06
3.125092254e-06
3.125106129e-06
3.125143254e-06
7.328311483e-06
7.32849297e-06
7.327594527e-06
7.328229553e-06
7.327235263e-06
7.327710772e-06
7.328051957e-06
7.328052999e-06
5.922189254e-06
5.922418417e-06
5.922134602e-06
5.922295674e-06
5.922226308e-06
5.922167304e-06
5.922635275e-06
5.922285611e-06
4.785720178e-06
4.78584075e-06
4.785576875e-06
4.785742357e-06
4.785676725e-06
4.786046132e-06
4.785678491e-06
4.786143243e-06
3.867174558e-06
3.86713439e-06
3.867767316e-06
3.867001939e-06
3.867369094e-06
3.867167591e-06
3.867904114e-06
3.866852975e-06
3.124777629e-06
3.125014254e-06
3.124751129e-06
3.125171254e-06
3.124844004e-06
3.125183504e-06
3.124886004e-06
3.125326629e-06
5.921938545e-06
5.922134064e-06
5.921430226e-06
5.921943199e-06
5.921358889e-06
5.921702926e-06
5.921882041e-06
5.921938942e-06
4.785547534e-06
4.785754962e-06
4.785532324e-06
4.785659999e-06
4.78567323e-06
4.785603665e-06
4.785975732e-06
4.785688841e-06
3.867155571e-06
3.867263533e-06
3.867051419e-06
3.867185802e-06
3.867159672e-06
3.86746609e-06
3.867142673e-06
3.867542452e-06
3.124887004e-06
3.124856004e-06
3.125391754e-06
3.124747254e-06
3.125072879e-06
3.124900129e-06
3.125509879e-06
3.124632129e-06
4.785446486e-06
4.785638975e-06
4.785091036e-06
4.785501955e-06
4.78519483e-06
4.7854413e-06
4.785514124e-06
4.785600607e-06
3.867057124e-06
3.867239778e-06
3.867066061e-06
3.867166604e-06
3.867228489e-06
3.867156451e-06
3.867450795e-06
3.867217162e-06
3.124897754e-06
3.124992629e-06
3.124823129e-06
3.124931754e-06
3.124931252e-06
3.125183503e-06
3.124903754e-06
3.125243129e-06
3.86705087e-06
3.867231201e-06
3.866807093e-06
3.867133918e-06
3.867011218e-06
3.867185825e-06
3.867189959e-06
3.867290101e-06
3.124850127e-06
3.125008252e-06
3.124873127e-06
3.124952127e-06
3.125040377e-06
3.124970502e-06
3.125202127e-06
3.125013127e-06
3.124901877e-06
3.125065252e-06
3.124739252e-06
3.124997752e-06
3.124994877e-06
3.125116252e-06
3.125077752e-06
3.125181502e-06
3.124894627e-06
3.866971492e-06
3.125030377e-06
4.785268025e-06
3.867146851e-06
3.125133627e-06
5.921628608e-06
4.785492236e-06
3.867282111e-06
3.124953002e-06
7.327832635e-06
5.921912614e-06
4.785667737e-06
3.867077586e-06
3.124907752e-06
9.067954028e-06
7.328189558e-06
5.922138415e-06
4.785441211e-06
3.867033941e-06
3.125073127e-06
1.12212782e-05
9.068397028e-06
7.328476737e-06
5.921894763e-06
4.785402866e-06
3.867240277e-06
3.124950377e-06
1.388591153e-05
1.122181908e-05
9.068757641e-06
7.328226167e-06
5.921867648e-06
4.785658188e-06
3.867102387e-06
3.125149877e-06
1.718324866e-05
1.388655955e-05
1.122226596e-05
9.068520771e-06
7.328220414e-06
5.922180972e-06
4.785506993e-06
3.867347514e-06
3.124935377e-06
2.126349896e-05
1.718400704e-05
1.388710502e-05
1.122207824e-05
9.068550598e-06
7.328600219e-06
5.922020781e-06
4.785806063e-06
3.867098657e-06
3.124937252e-06
2.189906244e-05
2.126435295e-05
1.718465691e-05
1.388702427e-05
1.122216491e-05
9.069003515e-06
7.328439373e-06
5.922381566e-06
4.785520926e-06
3.867106801e-06
3.125030752e-06
2.190016238e-05
2.473024286e-05
2.126510476e-05
1.718477821e-05
1.388719977e-05
1.122269302e-05
9.068857278e-06
7.328867857e-06
5.922061683e-06
4.785538593e-06
3.867223413e-06
3.124898002e-06