/*--------------------------------*- C++ -*----------------------------------*\
  =========                 |
  \\      /  F ield         | OpenFOAM: The Open Source CFD Toolbox
   \\    /   O peration     | Website:  https://openfoam.org
    \\  /    A nd           | Version:  8
     \\/     M anipulation  |
\*---------------------------------------------------------------------------*/






FoamFile
{
    version     2.0;
    format      ascii;
    class       volVectorField;
    location    "0";
    object      UDDES;
}
// * * * * * * * * * * * * * * * * * * * * * * * * * * * * * * * * * * * * * //

dimensions      [0 1 -1 0 0 0 0];


internalField   nonuniform List<vector> 
18009
(
( 0.006718855817 -0.0002163592144 1.446793885e-05 )
( 0.00680848863 -0.0002112991642 1.851655179e-05 )
( 0.00640859874 -0.0001696888939 8.122191502e-06 )
( 0.007278474513 -0.0002979362034 2.334218698e-05 )
( 0.006461037789 -0.0001674303057 1.106130821e-05 )
( 0.006815489382 -0.0002107685432 1.892397813e-05 )
( 0.005965474527 -0.0001150837925 4.006899871e-06 )
( 0.005964200944 -0.0001150626194 3.923368695e-06 )
( 0.007996699773 -0.0004615966172 5.862282251e-06 )
( 0.00737858098 -0.0002878208761 2.813442916e-05 )
( 0.006004936062 -0.0001205291264 6.285069048e-06 )
( 0.006495896727 -0.0001682352886 1.31835277e-05 )
( 0.006006120704 -0.0001205675289 6.351449429e-06 )
( 0.006899716333 -0.0002075804223 2.487307211e-05 )
( 0.005623629317 -8.344760136e-05 8.871279533e-07 )
( 0.005608473904 -8.541296847e-05 2.453171248e-07 )
( 0.008500666358 -0.0005372822052 -7.972348612e-06 )
( 0.008103861474 -0.0004422978673 9.533434422e-06 )
( 0.006906294264 -0.0002069473412 2.562765258e-05 )
( 0.007472973317 -0.0002777558984 4.187808372e-05 )
( 0.005644844845 -9.064755432e-05 2.0094908e-06 )
( 0.006042254157 -0.0001177342638 8.295270163e-06 )
( 0.006544960663 -0.0001670614438 1.69742907e-05 )
( 0.006041088607 -0.000117690448 8.225702913e-06 )
( 0.005659907125 -8.906559378e-05 2.445809059e-06 )
( 0.005215479992 -6.512885011e-05 -4.200191142e-06 )
( 0.005202806089 -6.311145262e-05 -4.450162123e-06 )
( 0.008693147451 -0.0004886920797 7.853768693e-06 )
( 0.008204685524 -0.0004239940899 2.003844565e-05 )
( 0.006577981636 -0.0001670201891 2.096761818e-05 )
( 0.006985897664 -0.0002016312501 3.827461114e-05 )
( 0.00756172603 -0.0002643114422 5.883367703e-05 )
( 0.006992080249 -0.00020070131 3.947110599e-05 )
( 0.005234620534 -6.801973359e-05 -3.934581855e-06 )
( 0.006079093087 -0.0001237957767 1.133052501e-05 )
( 0.005693172105 -8.902300033e-05 3.878242296e-06 )
( 0.006080199499 -0.0001237996767 1.144855469e-05 )
( 0.005678751972 -9.025536565e-05 3.047911605e-06 )
( 0.005247573368 -7.003526116e-05 -4.085603905e-06 )
( 0.0049081631 -5.194086771e-05 -3.445960374e-06 )
( 0.004896542057 -5.30403413e-05 -3.400023161e-06 )
( 0.00829976704 -0.0004032877332 3.397096225e-05 )
( 0.008863212541 -0.0004341271706 3.816900062e-05 )
( 0.006114597898 -0.0001190752955 1.622520904e-05 )
( 0.006624718662 -0.0001641339622 2.902799497e-05 )
( 0.006113468669 -0.0001190835974 1.603759665e-05 )
( 0.007072472014 -0.0001914326858 5.538789992e-05 )
( 0.007066709921 -0.0001924706885 5.410835001e-05 )
( 0.007645655423 -0.0002517363755 7.680425188e-05 )
( 0.006656086538 -0.0001629826729 3.491585812e-05 )
( 0.004924038425 -5.796936239e-05 -3.673449555e-06 )
( 0.005712965503 -9.631012654e-05 5.432011676e-06 )
( 0.005277955905 -7.200971595e-05 -3.989340257e-06 )
( 0.005727387033 -9.406007302e-05 7.060593816e-06 )
( 0.005265702028 -6.980243052e-05 -4.137830729e-06 )
( 0.004937744234 -5.672722909e-05 -4.483203156e-06 )
( 0.004727354739 -4.600045577e-05 -4.312621058e-06 )
( 0.004713732284 -4.491860091e-05 -4.282048849e-06 )
( 0.008390768431 -0.0003825227031 5.15532156e-05 )
( 0.009003904648 -0.0003667317796 6.228916027e-05 )
( 0.008475811221 -0.0003602135112 6.747870066e-05 )
( 0.006150200032 -0.0001230701455 2.271176163e-05 )
( 0.005759570748 -9.111266263e-05 1.208092181e-05 )
( 0.00615126919 -0.0001230523339 2.292684803e-05 )
( 0.005745610688 -9.395426605e-05 9.498337022e-06 )
( 0.006729992107 -0.0001555718482 4.843600982e-05 )
( 0.007143840194 -0.0001827188389 6.894442777e-05 )
( 0.006700024009 -0.0001577509829 4.345412526e-05 )
( 0.007726198528 -0.0002374892938 8.710909606e-05 )
( 0.00714944955 -0.0001816879521 6.976561417e-05 )
( 0.006184337661 -0.0001176766673 2.949214468e-05 )
( 0.006183275022 -0.0001177398153 2.930602386e-05 )
( 0.004742043093 -4.961018567e-05 -4.895209258e-06 )
( 0.005296456628 -7.44961726e-05 -2.914538527e-06 )
( 0.004966171924 -5.930355474e-05 -5.88853527e-06 )
( 0.005309319124 -7.571366586e-05 -1.878751277e-06 )
( 0.004953197669 -6.054820551e-05 -5.339318705e-06 )
( 0.004756147508 -5.055164729e-05 -5.942773896e-06 )
( 0.003835999873 -2.356162258e-05 -4.187842023e-06 )
( 0.003824675689 -2.232193219e-05 -2.851279078e-06 )
( 0.009073885158 -0.0003205628018 6.813716755e-05 )
( 0.008623632602 -0.0003047449281 8.536600944e-05 )
( 0.008553814143 -0.0003345724544 7.904550876e-05 )
( 0.005779055879 -9.738246445e-05 1.589881504e-05 )
( 0.005339758471 -7.540186198e-05 2.702655365e-06 )
( 0.005793357268 -9.47667213e-05 1.890555177e-05 )
( 0.005327352323 -7.404176722e-05 5.168906796e-07 )
( 0.006251068786 -0.0001117733045 3.913758337e-05 )
( 0.006250021979 -0.0001118966902 3.900177762e-05 )
( 0.006772151683 -0.0001498103666 5.557997792e-05 )
( 0.006218201015 -0.0001195911027 3.433135862e-05 )
( 0.006219212431 -0.0001195094665 3.448849748e-05 )
( 0.007803184446 -0.0002200449526 8.737719327e-05 )
( 0.007224739529 -0.0001699667482 7.462541544e-05 )
( 0.007219202816 -0.0001711604855 7.464289956e-05 )
( 0.006801837124 -0.0001463821536 5.789367424e-05 )
( 0.005824642722 -9.106411017e-05 2.405980922e-05 )
( 0.00581104774 -9.452721133e-05 2.210046114e-05 )
( 0.003847906832 -2.575158396e-05 -6.574557574e-06 )
( 0.004981873557 -6.443638995e-05 -5.673265605e-06 )
( 0.004784068093 -5.307847823e-05 -8.092400094e-06 )
( 0.004995839205 -6.214207679e-05 -4.951365554e-06 )
( 0.004770562984 -5.246199726e-05 -7.31262935e-06 )
( 0.003860035213 -2.697800483e-05 -8.979041013e-06 )
( 0.003301676596 -1.514972519e-05 -5.987435088e-06 )
( 0.003292131703 -1.411254561e-05 -3.886714694e-06 )
( 0.009173018858 -0.0002351658331 6.374195073e-05 )
( 0.008742856793 -0.0002373648167 8.510625776e-05 )
( 0.008687417023 -0.0002720444463 8.723243081e-05 )
( 0.007874117233 -0.0002010571043 8.267945668e-05 )
( 0.005358221941 -7.650056796e-05 6.225643574e-06 )
( 0.005025132094 -6.289278099e-05 -1.299731139e-06 )
( 0.005371163599 -7.760152221e-05 8.618295396e-06 )
( 0.005011718255 -6.511706306e-05 -3.39112762e-06 )
( 0.005886999425 -8.492591587e-05 3.129658216e-05 )
( 0.006284390111 -0.0001117323263 4.252077269e-05 )
( 0.005873560905 -8.970667113e-05 3.014490903e-05 )
( 0.006285395473 -0.0001115805426 4.260872447e-05 )
( 0.005843082443 -9.569207759e-05 2.620139276e-05 )
( 0.005856588949 -9.165424854e-05 2.799628783e-05 )
( 0.007292984053 -0.0001584392448 7.185824506e-05 )
( 0.0072982735 -0.0001572727197 7.137499051e-05 )
( 0.006873591337 -0.0001354710694 5.987706754e-05 )
( 0.006844081916 -0.0001390948746 5.991989383e-05 )
( 0.00631752098 -0.0001022523938 4.431999696e-05 )
( 0.006316477433 -0.000102421669 4.428567627e-05 )
( 0.005400867201 -7.568900764e-05 1.296382106e-05 )
( 0.005388859194 -7.534104225e-05 1.155328391e-05 )
( 0.003311929759 -1.677604268e-05 -8.636991879e-06 )
( 0.004798915703 -5.577484262e-05 -8.048541531e-06 )
( 0.003885506419 -2.932331699e-05 -1.341583356e-05 )
( 0.004813319072 -5.564545063e-05 -7.491324595e-06 )
( 0.003872771747 -2.848971053e-05 -1.134109243e-05 )
( 0.003322749166 -1.786656321e-05 -1.125990821e-05 )
( 0.002743079793 -9.227088412e-06 -7.912151887e-06 )
( 0.002735413145 -8.487712876e-06 -5.896185485e-06 )
( 0.009253202938 -0.0001378055167 5.469933967e-05 )
( 0.008792283013 -0.0001991622994 7.921638462e-05 )
( 0.008837131783 -0.0001563760452 7.247764006e-05 )
( 0.007995054126 -0.0001555120689 7.148001896e-05 )
( 0.007938045077 -0.0001798600133 7.584701234e-05 )
( 0.007366124541 -0.000143910831 6.301360554e-05 )
( 0.00736134965 -0.0001452165889 6.378372927e-05 )
( 0.005041180179 -6.737095828e-05 1.256732958e-06 )
( 0.004842361435 -5.638946459e-05 -4.461261597e-06 )
( 0.005055258051 -6.45604232e-05 3.608396355e-06 )
( 0.004828311969 -5.660942043e-05 -6.295120329e-06 )
( 0.005905223079 -8.808058919e-05 3.284543709e-05 )
( 0.005459588487 -6.965774082e-05 1.850033732e-05 )
( 0.005447968375 -7.071105938e-05 1.750937372e-05 )
( 0.00591897266 -8.302553761e-05 3.380889757e-05 )
( 0.005418679677 -7.525895489e-05 1.470191455e-05 )
( 0.00543081481 -7.48483435e-05 1.602981501e-05 )
( 0.006914886646 -0.0001280212746 5.740575943e-05 )
( 0.006943048909 -0.0001245914464 5.530423005e-05 )
( 0.006383246742 -9.206533286e-05 4.740146687e-05 )
( 0.006382184103 -9.220284846e-05 4.740105942e-05 )
( 0.00635068072 -0.0001010438718 4.620527761e-05 )
( 0.00635170145 -0.0001008916879 4.623530185e-05 )
( 0.005949472543 -7.500209904e-05 3.573355207e-05 )
( 0.005936068948 -8.022646216e-05 3.474701589e-05 )
( 0.005084135104 -6.353026401e-05 7.386995549e-06 )
( 0.005070924759 -6.677380588e-05 5.719839464e-06 )
( 0.002751418389 -1.034894922e-05 -1.063535001e-05 )
( 0.003898892552 -3.060590461e-05 -1.519048328e-05 )
( 0.003345877398 -1.981722744e-05 -1.640348819e-05 )
( 0.003912168555 -3.067030775e-05 -1.663262265e-05 )
( 0.003334180452 -1.909588536e-05 -1.394469655e-05 )
( 0.002760570729 -1.120212164e-05 -1.312102358e-05 )
( 0.002170187188 -4.885194357e-06 -9.036849406e-06 )
( 0.002164624631 -4.42083001e-06 -6.745608971e-06 )
( 0.009309802204 -2.939729166e-05 5.222664186e-05 )
( 0.008877007291 -0.0001111777892 6.656063488e-05 )
( 0.008910061792 -6.506183854e-05 6.234247849e-05 )
( 0.00804760959 -0.0001261995931 6.644829409e-05 )
( 0.008094339631 -9.342365956e-05 6.117270823e-05 )
( 0.007482528687 -0.0001072105952 4.765198537e-05 )
( 0.007478647865 -0.0001092284001 4.80896415e-05 )
( 0.007427547593 -0.0001274653769 5.344366218e-05 )
( 0.00742330635 -0.0001292298693 5.416897329e-05 )
( 0.007008116692 -0.0001145772985 4.688445915e-05 )
( 0.006981911603 -0.0001177869999 5.110466009e-05 )
( 0.004857504275 -5.827206769e-05 -2.223892579e-06 )
( 0.003939361311 -3.105289943e-05 -1.72619857e-05 )
( 0.004872076213 -5.759976193e-05 3.475270205e-08 )
( 0.003925767727 -3.107314114e-05 -1.746170346e-05 )
( 0.005477171391 -6.774318172e-05 1.966367745e-05 )
( 0.005141375121 -5.791127114e-05 1.169080315e-05 )
( 0.005128621589 -6.261561794e-05 1.075381806e-05 )
( 0.005489177071 -6.630433199e-05 2.091867282e-05 )
( 0.005099802278 -6.643056986e-05 8.611104022e-06 )
( 0.005113401916 -6.213915913e-05 9.87781641e-06 )
( 0.006416120101 -9.171036072e-05 4.703800369e-05 )
( 0.006417097989 -9.157009481e-05 4.700707359e-05 )
( 0.006447906606 -8.309808618e-05 4.525752229e-05 )
( 0.006446917541 -8.324140799e-05 4.533831088e-05 )
( 0.00601049047 -6.511943502e-05 4.114065814e-05 )
( 0.005997441709 -6.984535139e-05 4.016310777e-05 )
( 0.005967463367 -7.739507419e-05 3.7191312e-05 )
( 0.005980487913 -7.220060797e-05 3.911889871e-05 )
( 0.005517836194 -5.981553841e-05 2.381357626e-05 )
( 0.005506383255 -6.12399017e-05 2.235515603e-05 )
( 0.00490108924 -5.672855332e-05 3.82188955e-06 )
( 0.004887121264 -5.793926539e-05 2.060686256e-06 )
( 0.00217651506 -5.57214662e-06 -1.146807608e-05 )
( 0.003358104033 -2.06382756e-05 -1.859370968e-05 )
( 0.002780559706 -1.275896466e-05 -1.820172656e-05 )
( 0.003370235441 -2.064716864e-05 -2.059539474e-05 )
( 0.002770436462 -1.215186421e-05 -1.559007251e-05 )
( 0.002183671342 -6.151184152e-06 -1.372550014e-05 )
( 0.00161376805 -1.880812874e-06 -8.707596862e-06 )
( 0.001609872677 -1.642512075e-06 -6.871533969e-06 )
( 0.009336151183 9.791655611e-05 6.412669609e-05 )
( 0.008935690857 -1.646659803e-05 6.051037053e-05 )
( 0.008953183889 3.656380068e-05 6.183941878e-05 )
( 0.008133032359 -5.813752796e-05 5.524436347e-05 )
( 0.008164635859 -2.216996654e-05 5.075748777e-05 )
( 0.007528060116 -8.451174654e-05 4.192913912e-05 )
( 0.007531424053 -8.233987319e-05 4.147776053e-05 )
( 0.007573215757 -5.525162123e-05 3.448615826e-05 )
( 0.007570465095 -5.765752212e-05 3.500274761e-05 )
( 0.007117890753 -8.384881221e-05 3.287354775e-05 )
( 0.007097342517 -8.992326184e-05 3.42980602e-05 )
( 0.00706649106 -0.0001012159046 3.702622053e-05 )
( 0.007042753976 -0.0001058432972 4.028643525e-05 )
( 0.006508729421 -7.455690502e-05 3.638553608e-05 )
( 0.006507817656 -7.469701814e-05 3.653850581e-05 )
( 0.006480200216 -8.269923273e-05 4.135362542e-05 )
( 0.006479272619 -8.283379429e-05 4.149301094e-05 )
( 0.003953192849 -3.173438745e-05 -1.649606929e-05 )
( 0.003395415843 -2.08606325e-05 -2.227885852e-05 )
( 0.003966751974 -3.148470205e-05 -1.551403693e-05 )
( 0.003382877912 -2.090519411e-05 -2.171918459e-05 )
( 0.005156444851 -5.951826097e-05 1.264894854e-05 )
( 0.004958295263 -5.122239963e-05 8.58239855e-06 )
( 0.004944872111 -5.376870104e-05 7.613946309e-06 )
( 0.005169686396 -5.420770322e-05 1.411217818e-05 )
( 0.004916091915 -5.716590022e-05 5.21155016e-06 )
( 0.00493028108 -5.503094872e-05 6.571769518e-06 )
( 0.006028517149 -6.822225987e-05 4.136519419e-05 )
( 0.006041759625 -6.358764222e-05 4.126213753e-05 )
( 0.006071328185 -5.713479186e-05 3.918920629e-05 )
( 0.006058214232 -6.17334299e-05 4.058552804e-05 )
( 0.005575915799 -4.975289266e-05 3.107627708e-05 )
( 0.005564386491 -5.093551226e-05 3.008468411e-05 )
( 0.005534814671 -5.722010974e-05 2.614323967e-05 )
( 0.005546703003 -5.56252453e-05 2.798777132e-05 )
( 0.005196541082 -4.846421871e-05 1.753901961e-05 )
( 0.005184284877 -5.384809265e-05 1.565744242e-05 )
( 0.003993920051 -3.078541704e-05 -1.292039269e-05 )
( 0.003980463836 -3.153724901e-05 -1.424954735e-05 )
( 0.001618220238 -2.255595973e-06 -1.074770171e-05 )
( 0.002790981671 -1.328817416e-05 -2.069260154e-05 )
( 0.0021996703 -7.320968507e-06 -1.845783117e-05 )
( 0.002801780123 -1.33551348e-05 -2.242270784e-05 )
( 0.002191459294 -6.839585694e-06 -1.614132998e-05 )
( 0.001623329357 -2.597896128e-06 -1.275670184e-05 )
( 0.001113598701 -3.637445616e-07 -7.219649888e-06 )
( 0.001111071673 -2.632199028e-07 -5.794469416e-06 )
( 0.009331456386 0.0002455073118 9.081525786e-05 )
( 0.008962225169 9.47678127e-05 6.716358621e-05 )
( 0.008962074295 0.0001582558034 7.646114682e-05 )
( 0.008189684711 1.508035621e-05 4.667249232e-05 )
( 0.008206937462 5.462568879e-05 4.425164298e-05 )
( 0.007604907732 -2.836577914e-05 2.791085353e-05 )
( 0.007607158273 -2.58047894e-05 2.750684871e-05 )
( 0.007633792236 5.668069662e-06 2.257533197e-05 )
( 0.007632028777 3.021570592e-06 2.288348333e-05 )
( 0.007144327275 -6.979049795e-05 2.906809459e-05 )
( 0.007161741145 -6.17797923e-05 2.556840263e-05 )
( 0.007197784726 -3.725952774e-05 1.541581696e-05 )
( 0.007183901966 -4.624414942e-05 2.026935545e-05 )
( 0.006608389318 -5.29117824e-05 2.298674553e-05 )
( 0.006609080825 -5.266278822e-05 2.287981079e-05 )
( 0.006587815471 -6.308440061e-05 2.486953963e-05 )
( 0.006588549819 -6.288998702e-05 2.481124284e-05 )
( 0.006563494913 -6.535304419e-05 2.725164995e-05 )
( 0.006562673487 -6.55160693e-05 2.735887392e-05 )
( 0.00653694151 -7.474860467e-05 3.120435576e-05 )
( 0.006537782494 -7.461131463e-05 3.106238364e-05 )
( 0.006127899978 -5.063042408e-05 2.958890036e-05 )
( 0.006116521545 -5.480183609e-05 3.214528988e-05 )
( 0.006101446226 -5.638926086e-05 3.4972094e-05 )
( 0.006088726688 -6.058085273e-05 3.704086703e-05 )
( 0.003408152144 -2.121248508e-05 -2.227615551e-05 )
( 0.002823524876 -1.338547554e-05 -2.476223744e-05 )
( 0.00342048076 -2.106139982e-05 -2.183748802e-05 )
( 0.002812605118 -1.344087832e-05 -2.392673377e-05 )
( 0.004972617142 -5.052754204e-05 1.009218977e-05 )
( 0.004046191927 -2.659567326e-05 -7.177822226e-06 )
( 0.00403393805 -2.796543413e-05 -8.738211363e-06 )
( 0.004986229353 -4.747163621e-05 1.135522962e-05 )
( 0.004007854499 -3.021964949e-05 -1.176061505e-05 )
( 0.004020900466 -2.894945101e-05 -1.020905165e-05 )
( 0.005592308007 -4.798486043e-05 3.23072818e-05 )
( 0.005603951402 -4.709951099e-05 3.206473411e-05 )
( 0.005631213542 -4.254002488e-05 2.99837011e-05 )
( 0.005620352458 -4.279504356e-05 3.092821134e-05 )
( 0.005254266784 -3.851999281e-05 2.502946336e-05 )
( 0.005241113715 -4.346729474e-05 2.335473073e-05 )
( 0.005210806616 -4.933567834e-05 1.986950519e-05 )
( 0.00522489287 -4.378806261e-05 2.199129813e-05 )
( 0.005012637004 -4.215226363e-05 1.509442882e-05 )
( 0.005000058562 -4.540782174e-05 1.319982857e-05 )
( 0.003445047652 -2.042948472e-05 -1.990450255e-05 )
( 0.003432867117 -2.103747102e-05 -2.101167593e-05 )
( 0.001116511994 -5.41286397e-07 -8.78418723e-06 )
( 0.002208257327 -7.735286999e-06 -2.054677498e-05 )
( 0.00163527776 -3.40108636e-06 -1.666241769e-05 )
( 0.00221696496 -7.773252037e-06 -2.229159327e-05 )
( 0.001629091101 -3.04207515e-06 -1.468361916e-05 )
( 0.001119959517 -7.128168704e-07 -1.019832143e-05 )
( 0.0006967442459 9.815061475e-08 -5.011635039e-06 )
( 0.000695241848 1.291894591e-07 -4.041694865e-06 )
( 0.009300597012 0.0004107078421 0.000123890175 )
( 0.008952941746 0.0002269911638 8.78458668e-05 )
( 0.008935941383 0.0003008889908 9.991726256e-05 )
( 0.008216506802 9.79878896e-05 4.382798943e-05 )
( 0.008213346824 0.0001454619342 4.843367788e-05 )
( 0.007653707638 3.370123522e-05 1.900804455e-05 )
( 0.007654916495 3.636407928e-05 1.875769885e-05 )
( 0.007667711005 7.071920845e-05 1.650114245e-05 )
( 0.00766698271 6.788843893e-05 1.654941843e-05 )
( 0.00721560698 -2.022604895e-05 9.857331861e-06 )
( 0.00722671533 -1.076660374e-05 6.337584637e-06 )
( 0.007248450071 1.630580118e-05 2.029341886e-06 )
( 0.007240464445 6.681892955e-06 3.805271945e-06 )
( 0.006630800664 -4.849546895e-05 1.893905755e-05 )
( 0.006631368306 -4.819863898e-05 1.880712807e-05 )
( 0.006649019197 -3.467140414e-05 1.38197247e-05 )
( 0.006648433395 -3.497954822e-05 1.397771393e-05 )
( 0.0066803433 -1.430358498e-05 9.31014938e-07 )
( 0.006679900922 -1.464785419e-05 1.119503963e-06 )
( 0.006666403264 -2.921400301e-05 7.957229172e-06 )
( 0.006666864268 -2.890103315e-05 7.752758393e-06 )
( 0.006211192347 -3.819988342e-05 1.822619197e-05 )
( 0.006222039461 -3.345271762e-05 1.604521822e-05 )
( 0.006191053893 -4.549369623e-05 1.948872887e-05 )
( 0.006199400872 -4.002605056e-05 1.920045906e-05 )
( 0.006177912466 -4.373376214e-05 2.076777309e-05 )
( 0.006168270484 -4.860289482e-05 2.237798799e-05 )
( 0.006143106613 -5.424740084e-05 2.666763066e-05 )
( 0.006154212169 -5.01157956e-05 2.446225335e-05 )
( 0.005682250019 -3.730319804e-05 2.134930037e-05 )
( 0.005672877654 -3.753260899e-05 2.346357905e-05 )
( 0.00565810781 -4.082558735e-05 2.623109503e-05 )
( 0.005647409707 -4.089527647e-05 2.790174585e-05 )
( 0.002834545448 -1.356288431e-05 -2.510225022e-05 )
( 0.002234780695 -7.749413271e-06 -2.441298602e-05 )
( 0.00284537836 -1.343789336e-05 -2.503090946e-05 )
( 0.00222595362 -7.841699698e-06 -2.341136133e-05 )
( 0.004058550112 -2.581035733e-05 -5.43857368e-06 )
( 0.003490971169 -1.704846181e-05 -1.380159119e-05 )
( 0.003480114741 -1.812071059e-05 -1.53834626e-05 )
( 0.004070251249 -2.420766032e-05 -3.720066161e-06 )
( 0.003457226325 -1.99814458e-05 -1.853201866e-05 )
( 0.003469004761 -1.878535477e-05 -1.71443553e-05 )
( 0.00526808016 -4.004685616e-05 2.582777051e-05 )
( 0.005280371755 -3.523139821e-05 2.57546817e-05 )
( 0.005305272527 -3.143504728e-05 2.401961137e-05 )
( 0.005293943454 -3.57902245e-05 2.515916094e-05 )
( 0.005064517725 -3.219685095e-05 2.327739821e-05 )
( 0.005052656401 -3.515059871e-05 2.186106576e-05 )
( 0.005025860388 -4.075911784e-05 1.741214874e-05 )
( 0.005038416944 -3.72516115e-05 1.982782669e-05 )
( 0.004092249088 -2.090239286e-05 6.058269832e-07 )
( 0.004081705585 -2.28486424e-05 -1.442029543e-06 )
( 0.002866437193 -1.299561973e-05 -2.343984306e-05 )
( 0.002856024774 -1.338931179e-05 -2.44467119e-05 )
( 0.0006984827924 2.50024712e-08 -6.060131909e-06 )
( 0.001641828101 -3.693884082e-06 -1.83967004e-05 )
( 0.001128216158 -1.197964593e-06 -1.312791483e-05 )
( 0.001648699283 -3.776094673e-06 -1.952995626e-05 )
( 0.001123843482 -9.706018318e-07 -1.170943688e-05 )
( 0.0007005446241 -4.794429387e-08 -7.046812243e-06 )
( 0.0003677521599 1.272601651e-07 -2.928128652e-06 )
( 0.0003670019505 1.314038371e-07 -2.382450702e-06 )
( 0.008912568912 0.0003804188455 0.0001143156987 )
( 0.00888342876 0.000467784761 0.0001311207743 )
( 0.008197416551 0.0002005760616 5.643621262e-05 )
( 0.008171346039 0.0002619075531 6.785285223e-05 )
( 0.007673146203 0.000102124839 1.731432894e-05 )
( 0.007673053071 0.000105113264 1.753280594e-05 )
( 0.007665469777 0.0001425605151 2.307453178e-05 )
( 0.007666555699 0.0001393209386 2.255741128e-05 )
( 0.007258028723 3.360884148e-05 -8.3551015e-07 )
( 0.007263387088 4.402665581e-05 -2.419139946e-06 )
( 0.007271468174 7.392140833e-05 -3.742408808e-06 )
( 0.007269049063 6.284990377e-05 -3.551530881e-06 )
( 0.006693445612 -8.002442883e-06 -5.193714969e-06 )
( 0.006693806499 -7.645755431e-06 -5.36053858e-06 )
( 0.006703441963 7.449211807e-06 -1.037120364e-05 )
( 0.006703117862 7.096445188e-06 -1.02455424e-05 )
( 0.006718390156 2.946292079e-05 -1.676080319e-05 )
( 0.00671819225 2.913037497e-05 -1.667642573e-05 )
( 0.006712736562 1.435545619e-05 -1.42285553e-05 )
( 0.006712954491 1.472137046e-05 -1.431252258e-05 )
( 0.006231569219 -3.432287122e-05 1.291663284e-05 )
( 0.006239338312 -2.81317607e-05 1.068845813e-05 )
( 0.006255701184 -1.78385344e-05 4.741421435e-06 )
( 0.006248907652 -2.447336192e-05 7.616207768e-06 )
( 0.006281857844 -1.040235816e-06 -1.036439971e-05 )
( 0.006277475506 -7.834200005e-06 -6.406984085e-06 )
( 0.006264832336 -1.829960456e-05 1.079649678e-06 )
( 0.006270690355 -1.160918782e-05 -2.328343726e-06 )
( 0.005760265049 -2.69856846e-05 8.57053783e-06 )
( 0.005769183394 -2.573412712e-05 6.080948424e-06 )
( 0.005739103071 -3.193115117e-05 1.045199951e-05 )
( 0.005748077296 -3.062329415e-05 9.756096915e-06 )
( 0.005727769341 -3.398002445e-05 1.24992921e-05 )
( 0.005718925502 -3.378568726e-05 1.409609195e-05 )
( 0.005696444307 -3.711544923e-05 1.791769682e-05 )
( 0.005705896765 -3.713775732e-05 1.627689016e-05 )
( 0.005351310596 -2.775636312e-05 1.609654646e-05 )
( 0.005341493059 -3.111357364e-05 1.84366927e-05 )
( 0.00532939937 -2.980167301e-05 2.078840043e-05 )
( 0.005318214186 -3.382739305e-05 2.26647262e-05 )
( 0.002243814524 -7.833677955e-06 -2.477195449e-05 )
( 0.001662426279 -3.740340162e-06 -2.129840141e-05 )
( 0.002252805512 -7.76401339e-06 -2.469905667e-05 )
( 0.001655579428 -3.809434247e-06 -2.05428114e-05 )
( 0.003501591273 -1.643260475e-05 -1.20490995e-05 )
( 0.002904394874 -1.030065505e-05 -1.730182885e-05 )
( 0.00289564766 -1.105211595e-05 -1.897471157e-05 )
( 0.003511632793 -1.538733886e-05 -1.013357996e-05 )
( 0.002876773477 -1.251546291e-05 -2.215955465e-05 )
( 0.002886424307 -1.173153032e-05 -2.059097824e-05 )
( 0.005077131558 -3.147957977e-05 2.421710997e-05 )
( 0.005089388229 -2.882157423e-05 2.375103395e-05 )
( 0.005112888757 -2.572202357e-05 2.228676931e-05 )
( 0.005101736635 -2.759814925e-05 2.338982449e-05 )
( 0.004129793495 -1.299917858e-05 8.602850357e-06 )
( 0.004121173173 -1.495366723e-05 7.12338533e-06 )
( 0.004102525301 -1.933467865e-05 2.752530236e-06 )
( 0.00411202386 -1.684642848e-05 4.958540103e-06 )
( 0.003530184738 -1.316251837e-05 -5.873333066e-06 )
( 0.003521309467 -1.448459898e-05 -7.91565526e-06 )
( 0.002270088298 -7.485104106e-06 -2.335495628e-05 )
( 0.00226158835 -7.718580491e-06 -2.424928425e-05 )
( 0.0003686221316 1.033536847e-07 -3.486976539e-06 )
( 0.001132978126 -1.405497983e-06 -1.431572491e-05 )
( 0.0007057558978 -2.908869021e-07 -8.992125913e-06 )
( 0.001137941843 -1.463653234e-06 -1.520373735e-05 )
( 0.000702972291 -1.704997175e-07 -7.97287521e-06 )
( 0.0003696746426 8.350267677e-08 -3.998420652e-06 )
( 0.0001623112621 1.171042499e-07 -1.398369477e-06 )
( 0.0001619921095 1.137609473e-07 -1.147778221e-06 )
( 0.008137337863 0.0003298053343 8.275569417e-05 )
( 0.008093764074 0.0004059835046 9.74637951e-05 )
( 0.007645546459 0.0001828044769 3.210523209e-05 )
( 0.007643477991 0.0001866355306 3.298450247e-05 )
( 0.007609173656 0.0002389786823 4.763567267e-05 )
( 0.00761224376 0.0002345092216 4.637001621e-05 )
( 0.007272125222 9.297653014e-05 -2.693398301e-06 )
( 0.007269912399 0.0001031623833 -4.912012628e-07 )
( 0.007254851051 0.0001335265551 7.306302905e-06 )
( 0.007262646221 0.000122092868 3.658163905e-06 )
( 0.006724219769 3.69789559e-05 -1.908407467e-05 )
( 0.006724322215 3.733667108e-05 -1.915884422e-05 )
( 0.006726101041 5.316405441e-05 -2.052490163e-05 )
( 0.006726005115 5.274679279e-05 -2.047609632e-05 )
( 0.006725923624 7.890349661e-05 -2.123195191e-05 )
( 0.006725982763 7.853478019e-05 -2.126569234e-05 )
( 0.00672823796 6.217166811e-05 -2.139508615e-05 )
( 0.006728229579 6.25853354e-05 -2.141802543e-05 )
( 0.006288597826 -8.203858215e-07 -1.387422617e-05 )
( 0.006292212754 6.211928394e-06 -1.712026642e-05 )
( 0.006299411878 1.738329775e-05 -2.277905151e-05 )
( 0.006296817679 1.035089917e-05 -2.046130794e-05 )
( 0.006308766082 3.636743713e-05 -2.961429527e-05 )
( 0.006307890173 2.891676922e-05 -2.876852159e-05 )
( 0.006303785369 1.762152533e-05 -2.497740206e-05 )
( 0.006305528805 2.459054303e-05 -2.702583515e-05 )
( 0.005778713617 -2.281977504e-05 3.502040954e-06 )
( 0.005782662891 -2.087436224e-05 3.560079449e-07 )
( 0.005796891637 -1.315036752e-05 -5.730283192e-06 )
( 0.005791896489 -1.501362658e-05 -2.824202284e-06 )
( 0.005818323232 1.413868631e-07 -2.185069025e-05 )
( 0.005815371405 -1.711099571e-06 -1.808645357e-05 )
( 0.005804680288 -9.489763215e-06 -1.001739292e-05 )
( 0.005809298716 -7.661898053e-06 -1.321713899e-05 )
( 0.005421335809 -2.353565651e-05 3.299546961e-06 )
( 0.005431003869 -1.874908958e-05 1.249781917e-06 )
( 0.005403009709 -2.782873707e-05 5.856446478e-06 )
( 0.005411788356 -2.314204721e-05 4.279021596e-06 )
( 0.005392606836 -2.538626541e-05 7.741052286e-06 )
( 0.005383693613 -2.915802179e-05 9.80108689e-06 )
( 0.005362820812 -3.097531226e-05 1.36292947e-05 )
( 0.005372770596 -2.750400563e-05 1.146220256e-05 )
( 0.005155794322 -2.25748372e-05 1.378869274e-05 )
( 0.005146129522 -2.381820559e-05 1.635145964e-05 )
( 0.005135301035 -2.409076478e-05 1.85475219e-05 )
( 0.005124462768 -2.58386026e-05 2.08018464e-05 )
( 0.001669478952 -3.782500244e-06 -2.153926107e-05 )
( 0.001148040639 -1.464215643e-06 -1.640910705e-05 )
( 0.001676483778 -3.732477353e-06 -2.143171878e-05 )
( 0.001143013244 -1.505431214e-06 -1.585756036e-05 )
( 0.002912959084 -9.795750884e-06 -1.56046226e-05 )
( 0.002299959306 -5.503916327e-06 -1.786058056e-05 )
( 0.002293239348 -6.085371751e-06 -1.926001823e-05 )
( 0.002920998493 -9.153739484e-06 -1.380273898e-05 )
( 0.002278323052 -7.208973329e-06 -2.211252649e-05 )
( 0.002286152216 -6.566646334e-06 -2.077612044e-05 )
( 0.004138413351 -1.198098198e-05 9.189699085e-06 )
( 0.00414658105 -1.049416733e-05 9.014046555e-06 )
( 0.004161642864 -8.683369742e-06 7.6793076e-06 )
( 0.004154417664 -9.686025805e-06 8.917652849e-06 )
( 0.003559021512 -6.967762602e-06 1.913382221e-06 )
( 0.003552827518 -8.458595403e-06 5.255280939e-07 )
( 0.00353851472 -1.190770308e-05 -3.761293328e-06 )
( 0.003545929212 -1.000903649e-05 -1.491203989e-06 )
( 0.002935500816 -7.819664461e-06 -9.788102034e-06 )
( 0.00292857876 -8.628992873e-06 -1.182143023e-05 )
( 0.001689999364 -3.604131052e-06 -2.023602065e-05 )
( 0.001683365786 -3.714494596e-06 -2.101213795e-05 )
( 0.0001626772573 1.128315432e-07 -1.636459501e-06 )
( 0.0007088696584 -4.050778557e-07 -9.827019312e-06 )
( 0.0003724243434 -7.372718436e-09 -5.114893611e-06 )
( 0.0007121899398 -4.429356295e-07 -1.040846655e-05 )
( 0.0003709327138 3.93040871e-08 -4.520352377e-06 )
( 0.0001631187188 1.094138682e-07 -1.897803941e-06 )
( 0.00756860571 0.0002932095958 6.369098264e-05 )
( 0.007564779371 0.0002982403093 6.486815982e-05 )
( 0.007508408278 0.0003660599177 7.819683378e-05 )
( 0.007513168268 0.0003605389502 7.738311979e-05 )
( 0.00723955594 0.0001565348066 1.328121925e-05 )
( 0.007225484122 0.0001713788515 1.916014298e-05 )
( 0.007182189263 0.0002183619508 3.663894677e-05 )
( 0.007201582193 0.0001997365907 2.901646076e-05 )
( 0.006723113358 8.610714576e-05 -1.946390148e-05 )
( 0.006722932681 8.645465277e-05 -1.93832675e-05 )
( 0.0067146644 0.0001008495747 -1.604592944e-05 )
( 0.006714902818 0.0001005153754 -1.616896225e-05 )
( 0.006691361777 0.0001233353541 -6.892847068e-06 )
( 0.006691826973 0.0001229274349 -7.064126294e-06 )
( 0.006706308108 0.0001070940343 -1.197020902e-05 )
( 0.006705923472 0.0001074346874 -1.182687811e-05 )
( 0.006311128382 3.698852743e-05 -3.064186603e-05 )
( 0.006311127916 4.494413588e-05 -3.102530172e-05 )
( 0.006309853401 5.795353718e-05 -3.129797187e-05 )
( 0.006311206613 5.000316378e-05 -3.135279621e-05 )
( 0.006301840767 7.967313286e-05 -3.055620982e-05 )
( 0.006305275485 7.192751218e-05 -3.115636355e-05 )
( 0.006309760269 5.933884677e-05 -3.150887642e-05 )
( 0.00630759215 6.722593389e-05 -3.133644714e-05 )
( 0.005823178217 4.279557288e-06 -2.666966975e-05 )
( 0.005825840402 6.606328952e-06 -2.95704067e-05 )
( 0.005830625072 1.534555304e-05 -3.577665484e-05 )
( 0.005829178728 1.31128354e-05 -3.372806532e-05 )
( 0.00583465118 3.052782267e-05 -4.294364771e-05 )
( 0.005835030228 2.817561654e-05 -4.238613838e-05 )
( 0.005833239295 1.96250021e-05 -3.848597044e-05 )
( 0.005834112875 2.16648441e-05 -4.051794895e-05 )
( 0.005437128246 -1.984393748e-05 -1.516277962e-06 )
( 0.005443876144 -1.409726974e-05 -4.309365977e-06 )
( 0.005455897655 -7.856611774e-06 -1.111779875e-05 )
( 0.005450977944 -1.362521743e-05 -7.596821888e-06 )
( 0.005473026074 3.165744374e-06 -2.813050378e-05 )
( 0.005470586475 -2.608466275e-06 -2.363189014e-05 )
( 0.005461703986 -8.756401257e-06 -1.52387247e-05 )
( 0.005465993192 -2.934122676e-06 -1.937600064e-05 )
( 0.005221790634 -1.738464562e-05 7.279027159e-09 )
( 0.005229162984 -1.480837545e-05 -1.948909357e-06 )
( 0.005204432644 -2.090047019e-05 2.773741926e-06 )