/*--------------------------------*- C++ -*----------------------------------*\
  =========                 |
  \\      /  F ield         | OpenFOAM: The Open Source CFD Toolbox
   \\    /   O peration     | Website:  https://openfoam.org
    \\  /    A nd           | Version:  8
     \\/     M anipulation  |
\*---------------------------------------------------------------------------*/






FoamFile
{
    version     2.0;
    format      ascii;
    class       volScalarField;
    location    "0";
    object      V;
}
// * * * * * * * * * * * * * * * * * * * * * * * * * * * * * * * * * * * * * //

dimensions      [0 3 0 0 0 0 0];


internalField   nonuniform List<scalar> 
16537
(
0.001038131999
0.001041942231
0.001056681493
0.001032451794
0.001058970469
0.001075233806
0.00103026033
0.0010590012
0.00107801808
0.001091498275
0.001030119957
0.001057131543
0.001079111503
0.001094479056
0.001104553722
0.001031199773
0.001056332725
0.001078825056
0.00109591572
0.001107430356
0.001113974112
0.001032959573
0.001056335808
0.001077917529
0.001096101694
0.00110877988
0.00111603861
0.001128375742
0.001034966046
0.001056900293
0.001077258146
0.001094966962
0.001109222659
0.001117065645
0.001130833364
0.001112188253
0.001036810472
0.001057654584
0.001077066499
0.001093452524
0.001109202451
0.001117576379
0.001130942443
0.001112912978
0.001101099061
0.001038152776
0.001058391946
0.001077260068
0.001092509119
0.001104654511
0.001118601266
0.001130525951
0.001112446718
0.001102710124
0.001086215969
0.001038616684
0.001058989652
0.001076993559
0.001092670027
0.001100427371
0.001125237491
0.001131165128
0.001111328699
0.001102893109
0.001087685741
0.001067690961
0.001038080024
0.001059195162
0.001076817887
0.001094143055
0.001103038063
0.001130858697
0.001132733134
0.001110429038
0.001102426301
0.001088033791
0.001068494715
0.001046044508
0.001036543024
0.001058022378
0.001076976986
0.001090130244
0.001107072609
0.001132272468
0.001134849192
0.001110223177
0.001101909522
0.001087708384
0.001068413243
0.001045828994
0.001022405315
0.001033152654
0.001056226535
0.00107773184
0.001088427424
0.00111747982
0.001135146853
0.001133210959
0.001110900863
0.001101907229
0.001087231844
0.001067719913
0.001044753348
0.001020815156
0.0009992168092
0.001029080145
0.001054367056
0.001072601273
0.001093699558
0.001128953911
0.001139307384
0.001130747544
0.001116435817
0.00110323415
0.001087118167
0.001066847698
0.001043077689
0.001017980367
0.000998115753
0.001032337852
0.001025329293
0.001044731996
0.001069713502
0.001106748036
0.001134895231
0.001144618191
0.001132381225
0.00112240022
0.001105568871
0.001087634159
0.001066218918
0.001041348799
0.001014041156
0.0009856901179
0.0009532721532
0.0003173763973
0.0003258719595
0.001022539747
0.001037817214
0.001083508328
0.001122118922
0.001141383145
0.001148117775
0.001134642051
0.001124686236
0.001108360532
0.001088754525
0.001066065991
0.001040116236
0.001011490168
0.0009810556019
0.0009481676623
0.000351119913
0.0003509624828
0.0003277315136
0.0003272041814
0.001011539438
0.001041113318
0.00109872743
0.001130368732
0.00114808988
0.001148813903
0.001139527882
0.001127298379
0.001111061668
0.001090293596
0.001066400248
0.001039411976
0.001009787204
0.0009783345718
0.0009454574867
0.0003521161368
0.0003520151369
0.0003303409151
0.0003349641376
0.0003216198378
0.0003206361311
0.001001561635
0.001055345155
0.0011066173
0.001138466651
0.001154761695
0.001151399997
0.001143338603
0.001129981723
0.001113211008
0.001092007789
0.001067130696
0.001039185771
0.001008690226
0.0009764842077
0.0009434658418
0.000352094792
0.0003517242984
0.000335968171
0.0003363013462
0.0003208629537
0.0003219452722
0.0003026473911
0.0003156421619
0.001002297895
0.001070498904
0.001114755283
0.001148318947
0.001158372015
0.001154143005
0.001145546082
0.00113248645
0.001115192173
0.001093663611
0.001068115815
0.001039354302
0.001008075319
0.0009751815847
0.0009417832459
0.0003515018541
0.0003511125309
0.0003361960043
0.0003359668054
0.0003227821361
0.0003229114402
0.000316135858
0.000316168205
0.0003262651763
0.0003189420291
0.001003485228
0.001075249379
0.00112223431
0.0011550739
0.001158856832
0.001155286918
0.001147319274
0.001134507061
0.001116972695
0.001095146188
0.001069199372
0.00103981263
0.001007856407
0.0009743260413
0.0009404355902
0.0003508471757
0.0003505109429
0.0003356462966
0.0003353300307
0.0003227741075
0.0003225152103
0.0003162474996
0.0003162588015
0.0003200918243
0.000320793728
0.0001692523545
0.0001690263613
0.0009886134671
0.001004556738
0.001078887578
0.001133207294
0.001158275422
0.001157825415
0.001156215757
0.001148583351
0.001135960097
0.001118487788
0.001096468603
0.001070261048
0.001040446213
0.001007947028
0.0009738562372
0.000939457779
0.0003502776912
0.0003500227354
0.0003350124902
0.0003347308289
0.0003222168109
0.0003219094354
0.0003161556512
0.0003159803599
0.0003212334671
0.0003216221529
0.0001699962
0.0001701097102
8.827066636e-05
8.949557675e-05
0.0009885295382
0.0003807415238
0.001081225441
0.001005225425
0.001141145475
0.001155436852
0.00115826247
0.001156465371
0.001149320135
0.001137005318
0.001119679829
0.001097609493
0.001071237574
0.001041151591
0.001008254836
0.0009737048258
0.0009388449317
0.0003498461124
0.0003496794727
0.0003344749329
0.0003342624583
0.0003216178933
0.0003213520492
0.0003157604338
0.0003155220809
0.0003218719721
0.0003219702315
0.0001699879917
0.0001699649058
9.01325292e-05
9.009887215e-05
4.616806641e-05
4.736309168e-05
0.0003805334087
0.0003805029217
0.0009886293882
0.0003716701957
0.001142878252
0.001082184175
0.001005539177
0.00115122987
0.001157806852
0.001156261024
0.001149697478
0.001137695682
0.001120555301
0.001098545107
0.001072101138
0.00104185309
0.001008690639
0.0009737937199
0.000938552248
0.0003495616957
0.0003494759546
0.000334083948
0.0003339457823
0.0003211211574
0.0003209270381
0.0003152856156
0.0003150662285
0.0003219541039
0.0003218678685
0.0001699649983
0.0001699599031
8.990442437e-05
8.980329153e-05
4.7746686e-05
4.769128705e-05
2.418440276e-05
2.505926899e-05
0.0003715378979
0.0003714333002
0.0003804066403
0.0009887374969
0.0003804047318
0.0003627141786
0.001151771827
0.001143808777
0.001082635236
0.001005687909
0.001156924925
0.001156107767
0.001149771987
0.001138090365
0.00112116389
0.001099268103
0.001072831724
0.001042503356
0.001009179531
0.0009740427457
0.0009385111078
0.0003494087422
0.0003493882211
0.0003338407993
0.0003337675649
0.0003207713235
0.0003206515824
0.0003148736268
0.000314713349
0.0003217463459
0.0003216149841
0.0001699374793
0.0001699011058
8.975162931e-05
8.972651806e-05
4.753571379e-05
4.744416897e-05
2.528156412e-05
2.523573523e-05
0.0003625822142
0.0003624868049
0.0003713725936
0.0003803691394
0.0003803755581
0.0009888153398
0.0003713270383
0.0003540568067
0.001156150542
0.001152181442
0.001144290808
0.001082852188
0.001005770316
0.001155801933
0.001149698922
0.0011382694
0.001121551863
0.001099794547
0.001073419464
0.001043074439
0.001009666432
0.0009743798699
0.0009386460574
0.0003493596399
0.000349385965
0.0003337224649
0.0003336988397
0.0003205653106
0.0003205082866
0.0003145866159
0.0003144922811
0.0003214895256
0.0003213844792
0.0001698559042
0.000169808389
8.97095448e-05
8.969444808e-05
4.739457584e-05
4.737161036e-05
2.513006733e-05
2.50640422e-05
0.0003539446983
0.000353859139
0.000362418581
0.0003713044021
0.0003712892768
0.0003803674683
0.0003803758942
0.0009888754851
0.0003623732507
0.0003459099982
0.001155451595
0.001156115302
0.001152476318
0.001144552869
0.001082968042
0.001005833225
0.001149573135
0.001138306931
0.001121769118
0.001100154002
0.001073867522
0.001043551061
0.001010114938
0.000974747754
0.0009388870966
0.0003493842166
0.0003494398808
0.0003336971617
0.000333707616
0.0003204761273
0.0003204647327
0.0003144282653
0.0003143905294
0.000321304424
0.0003212455764
0.0001697614929
0.0001697244644
8.967863676e-05
8.966265762e-05
4.736054788e-05
4.735454798e-05
2.502746285e-05
2.501080663e-05
0.0003458216347
0.0003537965771
0.0003457518745
0.0003623436549
0.0003623264733
0.0003712846651
0.000371283601
0.0003803787552
0.0009889286354
0.0003803877103
0.0003537525478
0.001149400578
0.001155217101
0.00115618954
0.001152661053
0.001144700919
0.00108304338
0.001005892952
0.001138265616
0.001121865518
0.001100379311
0.001074190093
0.001043928996
0.001010503636
0.0009751055024
0.0009391766738
0.000349454818
0.0003495249966
0.0003337341426
0.0003337652661
0.0003204698126
0.0003204884131
0.0003143744596
0.0003143752764
0.0003212100045
0.0003212035752
0.0001696986366
0.0001696775487
8.964603375e-05
8.963384622e-05
4.734990945e-05
4.73456073e-05
2.50040301e-05
2.50018456e-05
0.0003456990249
0.0003537231662
0.000353704802
0.0003623174411
0.0003623145611
0.0003712870118
0.00098897874
0.0003804036715
0.0003803947179
0.0003712920522
0.0003456606892
0.001138181901
0.001149237131
0.001155149859
0.00115627073
0.001152775602
0.001144791353
0.00108310302
0.001005950163
0.001121882743
0.001100503375
0.001074407373
0.00104421319
0.00101082265
0.0009754272074
0.0009394723081
0.0003495486369
0.0003496220212
0.0003338072975
0.0003338483973
0.000320516631
0.000320552362
0.0003143903712
0.0003144166696
0.0003212082716
0.0003212238716
0.0001696642623
0.0001696699264
8.962639182e-05
8.961900675e-05
4.734054728e-05
4.733733316e-05
2.500120142e-05
2.500092428e-05
0.0003456342436
0.0003456172263
0.0003536946742
0.0003536904748
0.0003623156183
0.0009890252269
0.0003804118734
0.0003804203783
0.0003713062912
0.0003712988662
0.0003623195232
0.001121852392
0.001138082106
0.001149128534
0.001155143803
0.001156334665
0.001152849866
0.00114485246
0.001083154299
0.001006000269
0.001100555837
0.001074541328
0.001044414885
0.00101107109
0.0009756990395
0.0009397460543
0.0003496487172
0.0003497176732
0.0003338961966
0.0003339395416
0.00032059227
0.0003206351676
0.000314451421
0.0003144913131
0.0003212525742
0.0003212928438
0.0001696730133
0.0001696773799
8.961391413e-05
8.961932283e-05
4.733596493e-05
4.733362541e-05
2.500005515e-05
2.499987675e-05
0.0003456074633
0.0003456031598
0.0003536905199
0.0009890663977
0.0003804283003
0.0003804359668
0.0003713141865
0.0003713220283
0.0003623319249
0.0003623251723
0.0003536934937
0.001100561295
0.001121798156
0.001137994387
0.001149076487
0.001155158517
0.001156383099
0.001152902604
0.001144897897
0.00108319793
0.001006040716
0.001074613124
0.001044548482
0.001011254378
0.0009759163897
0.0009399821392
0.0003497439084
0.0003498039333
0.000333986495
0.0003340273156
0.0003206783568
0.000320721329
0.0003145347934
0.0003145798473
0.0003213372802
0.0003213889007
0.0001696879957
0.0001697051737
8.96205871e-05
8.962093129e-05
4.733168293e-05
4.733516172e-05
2.500031618e-05
2.499978573e-05
0.0003456028503
0.0009891026508
0.0003804429702
0.0003804497387
0.0003713296617
0.0003713368311
0.0003623391846
0.0003623465713
0.0003537045684
0.0003536984314
0.0003456053898
0.001074641577
0.001100539505
0.001121739414
0.001137933824
0.00114905725
0.001155179405
0.001156422019
0.00115294425
0.001144934742
0.001083234385
0.001006075681
0.00104462913
0.001011381803
0.000976081088
0.000940173945
0.0003498277599
0.0003498768201
0.0003340696323
0.000334105377
0.0003207622732
0.0003208014429
0.0003146248294
0.0003146680205
0.000321439412
0.0003214937397
0.0001697209402
0.0001697426229
8.962412658e-05
8.963072397e-05
4.733544119e-05
4.733460202e-05
2.499907758e-05
2.500105638e-05
0.000380455881
0.0003804622458
0.0003713435123
0.0003713496271
0.0003623537381
0.0003623604829
0.000353711311
0.0003537182022
0.0003456155205
0.0003456098552
0.00104467118
0.001074642609
0.00110050619
0.001121690201
0.001137900054
0.001149056117
0.001155202766
0.001156456396
0.001152980728
0.001144967759
0.001083267635
0.001006120054
0.001011464326
0.0009761991805
0.0009403212637
0.0003498973757
0.0003499351969
0.0003341411463
0.0003341707702
0.0003208376448
0.0003208712273
0.0003147088331
0.0003147472382
0.0003215495135
0.0003215983608
0.0001697598901
0.0001697814284
8.963544553e-05
8.964381678e-05
4.733500961e-05
4.73371026e-05
2.500094703e-05
2.499997393e-05
0.0003713553269
0.0003713607434
0.0003623666707
0.0003623722662
0.0003537248967
0.0003537311689
0.0003456217938
0.0003456282059
0.001011513065
0.001044687319
0.001074629097
0.001100473059
0.001121656739
0.00113788616
0.001149065772
0.001155228448
0.001156490043
0.001153016608
0.00114500172
0.001083307871
0.001006205676
0.0009762789198
0.0009404282663
0.0003499521685
0.0003499794939
0.0003341996082
0.0003342231678
0.0003209013067
0.0003209285753
0.0003147833939
0.0003148163647
0.000321643934
0.0003216895887
0.0001698056851
0.0001698225525
8.964876984e-05
8.965662407e-05
4.733782129e-05
4.734057817e-05
2.4999512e-05
2.499985575e-05
0.0003623773312
0.0003623820218
0.0003537368415
0.0003537418821
0.0003456344241
0.0003456401851
0.0009763292813
0.001011538237
0.001044688131
0.001074610914
0.001100447308
0.001121639053
0.001137886361
0.001149083156
0.001155257882
0.00115652691
0.001153057557
0.001145043234
0.001083376199
0.001006393256
0.000940501962
0.000349992943
0.0003500113338
0.0003342453221
0.0003342630373
0.000320952782
0.0003209745119
0.0003148457006
0.0003148715712
0.0003217312596
0.0003217720891
0.0001698377909
0.000169855893
8.966649872e-05
8.967149127e-05
4.734121643e-05
4.734357646e-05
2.4999335e-05
2.499990275e-05
0.0003537463298
0.000353750317
0.0003456453295
0.0003456498145
0.0009405502001
0.0009763587486
0.001011548502
0.001044681841
0.001074594762
0.001100431879
0.001121634682
0.001137897174
0.001149107864
0.001155294018
0.001156572978
0.00115311266
0.001145103764
0.001083513118
0.00100679348
0.0003500219458
0.0003500336119
0.0003342789721
0.000334291617
0.0003209933356
0.000321009476
0.0003148952353
0.0003149170523
0.0003218069952
0.0003218344574
0.0001698710014
0.0001698884901
8.967574168e-05
8.968238517e-05
4.734719521e-05
4.734799391e-05
2.49992575e-05
2.49995805e-05
0.0003456536587
0.0003456569842
0.0003500422313
0.0003500491043
0.0009405803243
0.0009763744494
0.001011550705
0.001044674365
0.001074584358
0.001100426908
0.0011216413
0.001137917408
0.00114914182
0.001155342494
0.001156638384
0.00115319754
0.001145205081
0.001083794008
0.001007600684
0.0003343027833
0.000334312094
0.0003210227734
0.0003210338345
0.0003149362768
0.0003149520987
0.0003218617994
0.0003218919527
0.0001699018408
0.000169908667
8.968729471e-05
8.969434136e-05
4.734847258e-05
4.735050792e-05
2.50006325e-05
2.5000146e-05
0.0003343202909
0.0003343273547
0.0003500560696
0.0009405985105
0.0003500596588
0.0009763820021
0.00101154989
0.001044669356
0.001074581147
0.001100431521
0.001121657766
0.001137948147
0.001149189833
0.001155413226
0.001156740182
0.001153339351
0.001145388538
0.00108435382
0.001009138211
0.0003210431334
0.0003210515791
0.0003149649401
0.0003149749645
0.0003219169903
0.0003219353411
0.0001699178433
0.0001699330575
8.969900891e-05
8.96996016e-05
4.735163384e-05
4.735419204e-05
2.4999532e-05
2.4999849e-05
0.0003210594563
0.000321066636
0.0003343331106
0.0003500653327
0.0003500671928
0.0009406090353
0.0003343381029
0.0009763855527
0.001011549364
0.001044668748
0.001074585324
0.001100445122
0.001121684719
0.001137993178
0.001149260618
0.001155522431
0.001156906133
0.001153583983
0.001145729455
0.001085421165
0.0003149832372
0.0003149908406
0.0003219502783
0.0003219637327
0.0001699441781
0.0001699499142
8.970219453e-05
8.970933477e-05
4.735548583e-05
4.735449397e-05
2.49997175e-05
2.500045075e-05
0.0003150002344
0.000321072534
0.0003150095306
0.0003343422195
0.0003343463804
0.0003500716719
0.0009406147409
0.0003500723429
0.000321077065
0.0009763880116
0.001011551124
0.001044673277
0.001074596849
0.001100468176
0.001121724967
0.001138059546
0.001149368096
0.00115569501
0.001157179246
0.0011540053
0.001146356095
0.0003219694228
0.0003219771646
0.0001699543511
0.0001699600481
8.971399619e-05
8.971535652e-05
4.735482179e-05
4.735797847e-05
2.500053975e-05
2.499940975e-05
0.0003219876293
0.0003150166684
0.000322010849
0.0003210811516
0.0003210856791
0.0003343497679
0.0009406182384
0.0003500749737
0.0003500746774
0.0003343524697
0.0003150204321
0.0009763912989
0.00101155613
0.001044683264
0.001074616153
0.001100502675
0.001121783808
0.001138158243
0.001149532528
0.001155966688
0.001157622064
0.001154714212
0.0001699570932
0.0001699579661
8.971623031e-05
8.971838939e-05
4.735977483e-05
4.735972887e-05
2.499907375e-05
2.5000373e-05
0.0001699606631
0.0003220202728
0.0001699814887
0.0003150223866
0.000315028995
0.0003210906054
0.0009406218281
0.0003500754913
0.0003500758845
0.0003343535958
0.00033435395
0.000321094089
0.000322018815
0.000976396468
0.001011564851
0.001044699156
0.001074644641
0.001100552375
0.001121869357
0.001138304475
0.001149780937
0.001156384729
0.001158317707
8.971475847e-05
8.971396324e-05
4.735951099e-05
4.736017031e-05
2.50009605e-05
2.50005665e-05
8.971430288e-05
0.0001699856266
8.972744228e-05
0.000322019889
0.0003220146841
0.0003150393833
0.0009406267141
0.0003500761067
0.0003500759894
0.0003343534021
0.0003343536691
0.0003210949699
0.0003210940426
0.0003150474246
0.0001699787022
0.0009764040078
0.001011577692
0.001044721916
0.001074684869
0.001100622948
0.001121992316
0.001138517257
0.001150145888
0.001157004508
4.735746033e-05
4.735650389e-05
2.5000121e-05
2.500020775e-05
4.73562251e-05
8.972917067e-05
4.736362626e-05
0.0001699772993
0.0001699599415
0.0003220548435
0.0009406331343
0.0003500763135
0.0003500764806
0.0003343529346
0.0003343523968
0.0003210921751
0.000321092882
0.0003150460847
0.0003150390671
0.0003220905135
8.97235826e-05
0.0009764141523
0.001011595306
0.001044753243
0.001074740652
0.001100721599
0.001122165315
0.001138817508
0.001150661069
2.499844175e-05
2.4997687e-05
2.49973295e-05
4.736429164e-05
2.50012995e-05
8.972208582e-05
8.970868437e-05
0.0001700005995
0.0009406410039
0.0003500766212
0.0003500770195
0.0003343517211
0.0003343510447
0.0003210913585
0.0003210899327
0.0003150393914
0.0003150371048
0.0003220658098
0.0003220319008
0.0001700403658
4.736069265e-05
0.0009764273562
0.001011618817
0.001044795609
0.001074816646
0.001100856394
0.001122401199
0.001139224426
2.500152025e-05
4.735959245e-05
4.735123994e-05
8.973545763e-05
0.0009406504902
0.0003500769181
0.0003500774764
0.0003343503784
0.0003343495733
0.0003210883768
0.0003210869788
0.0003150390077
0.0003150357653
0.0003220612573
0.0003220336305
0.0001700091525
0.0001699703017
8.976222343e-05
2.499937875e-05
0.0009764443586
0.00101164981
0.001044852017
0.001074917889
0.001101034946
0.001122710416
2.499865425e-05
2.49938405e-05
4.736678518e-05
0.0009406622587
0.0003500770847
0.0003500780026
0.0003343486711
0.0003343475131
0.0003210856955
0.0003210841524
0.000315032876
0.0003150326304
0.0003220613707
0.0003220377335
0.0001700071194
0.0001699732499
8.974061955e-05
8.97141789e-05
4.738249976e-05
0.0009764662085
0.001011690212
0.001044925595
0.001075048886
0.001101262853
2.5002411e-05
0.0009406771613
0.0003500774883
0.0003500791515
0.0003343463922
0.000334345113
0.0003210823008
0.0003210801829
0.0003150315693
0.000315029859
0.000322043711
0.0003220490635
0.0001700061709
0.0001699756852
8.973947475e-05
8.971623551e-05
4.736963344e-05
4.735397248e-05
2.5011132e-05
0.0009764941428
0.00101174201
0.001045019085
0.001075212684
0.0003500786784
0.0003500814693
0.0009406959358
0.0003343441371
0.0003343431689
0.0003210778708
0.0003210755003
0.0003150279023
0.0003150255305
0.0003220482295
0.0003220454502
0.0001699860945
0.000169992453
8.97386894e-05
8.971756686e-05
4.736892155e-05
4.735516703e-05
2.500391325e-05
2.499514475e-05
0.0009765294452
0.001011806973
0.00104513426
0.000334342794
0.0003343424742
0.0003500809906
0.0009407192575
0.0003500851534
0.0003210732197
0.0003210712417
0.0003150225831
0.0003150196431
0.0003220473797
0.0003220463867
0.0001699911726
0.000169987904
8.972510645e-05
8.972950301e-05
4.736841799e-05
4.7355864e-05
2.50034615e-05
2.4995788e-05
0.0009765733709
0.001011886313
0.0003210696761
0.0003210686614
0.0003343428961
0.0009407480657
0.0003500844591
0.0003500902282
0.0003343431952
0.0003150168428
0.0003150141958
0.0003220415964
0.0003220396916
0.0001699915672
0.0001699916591
8.972865547e-05
8.972649717e-05
4.736043083e-05
4.736306942e-05
2.50031695e-05
2.49961465e-05
0.000976626973
0.0003150121944
0.0003150110387
0.0003210680492
0.0009407835734
0.0003500891999
0.0003500969405
0.0003343443297
0.0003343451721
0.0003210678236
0.0003220392839
0.0003220350541
0.0001699870858
0.0001699865957
8.972924768e-05
8.972954954e-05
4.736260397e-05
4.736138014e-05
2.4998725e-05
2.500022225e-05
0.0003220326184
0.0003220349393
0.0003150106382
0.0003500956016
0.0003501056698
0.0003343470779
0.0003343485604
0.0003210678202
0.0003210682054
0.0003150100822
0.0001699880849
0.0001699841263
8.9726644e-05
8.972660706e-05
4.736310473e-05
4.736337785e-05
2.4999991e-05
2.499934125e-05
0.0001699820815
0.0001699858441
0.0003220347776
0.0003343513981
0.0003343536362
0.0003210688735
0.0003210700148
0.0003150098019
0.0003150096331
0.0003220360451
8.972793882e-05
8.972543544e-05
4.736174965e-05
4.736183218e-05
2.5000348e-05
2.500054625e-05
8.972420158e-05
8.972694244e-05
0.0001699853992
0.0003210714388
0.000321073404
0.0003150100642
0.000315010699
0.0003220344611
0.0003220350734
0.0001699873103
4.736272726e-05
4.736132356e-05
2.499968175e-05
2.4999776e-05
4.736066288e-05
4.736234453e-05
8.972664621e-05
0.0003150117054
0.0003150128388
0.0003220350889
0.0003220365643
0.000169985067
0.0001699858855
8.97280239e-05
2.50003235e-05
2.49995775e-05
2.49992405e-05
2.500020975e-05
4.736218806e-05
0.0003220364935
0.0003220374424
0.000169985308
0.0001699867071
8.97264528e-05
8.972700381e-05
4.736302627e-05
2.5000139e-05
0.00016998571
0.0001699861152
8.972650652e-05
8.972736876e-05
4.736208804e-05
4.73624028e-05
2.500061875e-05
8.972651834e-05
8.972664084e-05
4.73620687e-05
4.736253643e-05
2.50000925e-05
2.500026125e-05
4.736196949e-05
4.736197648e-05
2.500005675e-05
2.50002945e-05
2.499994625e-05
2.49999155e-05
3.125132876e-06
3.79074643e-06
3.125203751e-06
4.598118379e-06
3.790842233e-06
3.125168626e-06
5.577435234e-06
4.598246513e-06
3.790813346e-06
3.124948126e-06
6.765310103e-06
5.577605799e-06
4.598229773e-06
3.79056837e-06
3.124905876e-06
8.206148767e-06
6.765535888e-06
5.577609475e-06
4.597963023e-06
3.790530105e-06
3.125119376e-06
9.953807937e-06
8.206446233e-06
6.765571603e-06
5.577327475e-06
4.59793346e-06
3.790788949e-06
3.124868751e-06
1.207360378e-05
9.954198155e-06
8.206531395e-06
6.765287815e-06
5.577314065e-06
4.59824544e-06
3.790507701e-06
3.124759251e-06
1.464474873e-05
1.207411521e-05
9.954358599e-06
8.206269335e-06
6.765300942e-06
5.577686282e-06
4.59793502e-06
3.790389968e-06
3.125241751e-06
1.776330258e-05
1.464541702e-05
1.207438783e-05
9.954155911e-06
8.206323884e-06
6.765739484e-06
5.577352377e-06
4.597812355e-06
3.790960423e-06
3.125164251e-06
1.799110657e-05
1.77641742e-05
1.46458552e-05
1.207430442e-05
9.954274085e-06
8.206832568e-06
6.765394578e-06
5.577230922e-06
4.598480643e-06
3.790878363e-06
3.125259501e-06
1.799197941e-05
1.980829692e-05
1.776485459e-05
1.464598682e-05
1.207451812e-05
9.954852561e-06
8.206498911e-06
6.76528447e-06
5.578004577e-06
4.59839725e-06
3.790995143e-06
3.124260251e-06
1.799272853e-05
1.980936265e-05
2.250416289e-05
1.77653485e-05
1.464634131e-05
1.207515851e-05
9.954566948e-06
8.206416413e-06
6.766165343e-06
5.577924573e-06
4.598538938e-06
3.789837929e-06
3.124245251e-06
1.799338236e-05
1.981024087e-05
2.250510709e-05
2.550019717e-05
1.776590971e-05
1.464702034e-05
1.207498021e-05
9.954537967e-06
8.207397025e-06
6.766097202e-06
5.578094928e-06
4.597214314e-06
3.789825563e-06
3.124822126e-06
1.799399845e-05
1.981108132e-05
2.250665713e-05
2.550634836e-05
7.503545188e-05
1.776657854e-05
1.464704554e-05
1.207504482e-05
9.955593766e-06
8.207353691e-06
6.766299011e-06
5.576602826e-06
4.597206938e-06
3.790502145e-06
3.124709376e-06
1.799456549e-05
1.981178718e-05
2.250739268e-05
2.55040527e-05
7.504728815e-05
8.156291477e-05
1.776695816e-05
1.464726192e-05
1.207612322e-05
9.955595681e-06
8.20758805e-06
6.76465551e-06
5.576603347e-06
4.597992538e-06
3.790376815e-06
3.125144626e-06
1.981248222e-05
1.799510302e-05
2.250863114e-05
2.550902831e-05
8.158419268e-05
7.505739118e-05
0.0002273872986
1.776741577e-05
1.4648269e-05
1.20762008e-05
9.955860503e-06
8.205837081e-06
6.764668174e-06
5.577503668e-06
4.597856592e-06
3.790887328e-06
3.125676126e-06
1.981308341e-05
2.250922531e-05
1.79956251e-05
2.550709491e-05
8.159473088e-05
7.506493237e-05
2.551112742e-05
0.0002395684357
0.0002274961943
1.776818549e-05
1.46484667e-05
1.207649026e-05
9.954090596e-06
8.205867686e-06
6.765682106e-06
5.577361388e-06
4.598450087e-06
3.791508664e-06
3.124905751e-06
1.981368111e-05
2.251024514e-05
1.799612289e-05
8.160940913e-05
2.551285896e-05
2.550958135e-05
7.507169801e-05
0.0002507890917
0.000239721455
0.0002275674643
1.776857371e-05
1.464876636e-05
1.207485926e-05
9.954147817e-06
8.206981764e-06
6.765541851e-06
5.57804358e-06
4.599168792e-06
3.790613426e-06
3.124955126e-06
1.981419251e-05
2.251074709e-05
1.799655346e-05
8.161570994e-05
2.55116086e-05
2.551427068e-05
7.507684685e-05
0.0002608977339
0.0002509792108
0.0002398215213
0.0002276146857
8.162598135e-05
1.776885273e-05
1.464754268e-05
1.207495642e-05
9.955325621e-06
8.206857083e-06
6.766312766e-06
5.578863126e-06
4.598140567e-06
3.79067042e-06
3.125079626e-06
2.251158557e-05
1.98146691e-05
1.799681061e-05
2.251200142e-05
2.55133207e-05
2.551548558e-05
7.508167242e-05
0.0002698183523
0.0002611141009
0.0002511047453
0.0002398868581
8.163001725e-05
0.0002276460213
8.163727392e-05
1.7768473e-05
1.464769595e-05
1.207612627e-05
9.955241455e-06
8.207708796e-06
6.767229973e-06
5.577700828e-06
4.598205451e-06
3.79081418e-06
3.124715751e-06
1.98150527e-05
1.799702064e-05
2.251268815e-05
2.551477426e-05
2.251304568e-05
2.551654637e-05
7.508538104e-05
0.0002700484872
0.0002775484905
0.0002612590124
0.0002511868753
0.0002399293013
8.1644917e-05
0.0002276664791
8.163988552e-05
1.77687083e-05
1.464873361e-05
1.207612244e-05
9.956150716e-06
8.208707708e-06
6.765944534e-06
5.57777259e-06
4.598369004e-06
3.79038883e-06
3.124527376e-06
1.981542144e-05
1.799728291e-05
2.251363869e-05
2.251399425e-05
2.551606765e-05
2.551749439e-05
7.508879181e-05
0.0002777803341
0.0002702050085
0.0002841496117
0.000261354651
0.0002512400678
0.0002399565811
8.164647387e-05
7.50912653e-05
0.0002276794713
8.164989762e-05
1.776940128e-05
1.464886928e-05
1.207704032e-05
9.957194274e-06
8.207331244e-06
6.76602208e-06
5.577955841e-06
4.597877466e-06
3.79016811e-06
3.125331751e-06
1.981576723e-05
1.799764756e-05
1.981615826e-05
2.251453272e-05
2.251485676e-05
2.551713491e-05
2.551824296e-05
0.0002779403288
0.0002843728756
0.0002703095061
0.0002897362509
0.0002614168994
0.0002512741419
0.0002399738582
7.50934838e-05
2.55188167e-05
2.551797053e-05
8.165301949e-05
8.165072832e-05
0.0002276874915
7.509505385e-05
1.776976947e-05
1.46497113e-05
1.207805922e-05
9.955793335e-06
8.207411481e-06
6.766221926e-06
5.577395912e-06
4.597621558e-06
3.791102168e-06
3.125016001e-06
1.799806995e-05
1.981653623e-05
1.981689665e-05
2.251528145e-05
2.251550984e-05
0.0002780484662
0.0002845289364
0.0002899430623
0.0002703781203
0.0002944647111
0.00026145691
0.0002512957425
0.0002399846736
2.551860428e-05
2.551926263e-05
2.251595526e-05
2.251580581e-05
7.50974202e-05
8.16534191e-05
7.50964753e-05
0.0002276923025
8.165487584e-05
2.551912517e-05
2.551964139e-05
1.77703906e-05
1.465058204e-05
1.207675491e-05
9.955869916e-06
8.207620783e-06
6.76559597e-06
5.57710341e-06
4.598693748e-06
3.790733158e-06
3.125850501e-06
1.799844945e-05
1.981717503e-05
1.981738695e-05
0.0002846356725
0.0002781202063
0.0002900892007
0.0002946497679
0.0002704225259
0.0002985221046
0.0002614823758
0.0002513093819
0.0002399915043
2.251617553e-05
2.251630448e-05
1.981763759e-05
1.981752675e-05
2.552010571e-05
2.551981532e-05
7.509829565e-05
2.551952991e-05
2.551991734e-05
0.0002276952457
8.165581078e-05
8.165501852e-05
7.509889408e-05
2.251649342e-05
2.251660486e-05
1.777090927e-05
1.464957992e-05
1.207681682e-05
9.956075261e-06
8.206940542e-06
6.765268862e-06
5.578315473e-06
4.5982679e-06
3.791700679e-06
3.125005126e-06
1.799870126e-05
1.799882369e-05
0.0002901902076
0.0002847072312
0.0002781670491
0.0002947816632
0.0002986824258
0.0002704509699
0.0003021161001
0.0002614985461
0.000251318099
0.0002399959999
1.9817733e-05
1.981784219e-05
1.799885183e-05
1.79988466e-05
2.251686086e-05
2.552001646e-05
2.251685751e-05
2.55202638e-05
2.251673991e-05
2.251679434e-05
8.165581441e-05
0.0002276973536
8.165623246e-05
7.509963504e-05
7.509941406e-05
2.552046914e-05
2.552023023e-05
1.981795515e-05
1.981805706e-05
1.777054582e-05
1.464960983e-05
1.207699448e-05
9.955367901e-06
8.206585543e-06
6.766609807e-06
5.577831567e-06
4.599376577e-06
3.790713999e-06
3.125378626e-06
0.0002948736217
0.0002902586059
0.0002847544117
0.0002781972959
0.0002987973621
0.0003022505039
0.0002704691394
0.0003054653553
0.0002615089229
0.0002513238735
0.0002399992123
1.799884595e-05
1.799889645e-05
1.777049955e-05
1.777051521e-05
1.981805528e-05
2.251689588e-05
1.981811463e-05
2.251692403e-05
1.981812335e-05
1.981814217e-05
7.509977401e-05
0.0002276993428
8.165666107e-05
8.165629609e-05
7.509985833e-05
2.552068879e-05
2.552056785e-05
2.552063394e-05
2.552044686e-05
2.251713049e-05
2.251702165e-05
1.799897919e-05
1.799910586e-05
1.464972167e-05
1.207631168e-05
9.954999538e-06
8.208023099e-06
6.7660727e-06
5.579082236e-06
4.598237052e-06
3.791143934e-06
3.125625126e-06
0.0002988780181
0.0002949364482
0.0002903041477
0.0002847851627
0.0002782167645
0.0003023471181
0.000305573873
0.0002704808594
0.0003087904107
0.0002615157952
0.0002513279288
0.000240001752
1.777018619e-05
1.777003622e-05
1.799874338e-05
1.981798417e-05
1.799892119e-05
1.981795829e-05
1.799909059e-05
1.799904888e-05
2.552059555e-05
2.552070099e-05
8.165686522e-05
0.0002277014061
8.165729066e-05
7.510026348e-05
7.510004814e-05
2.55207793e-05
2.552065512e-05
2.251739225e-05
2.25173931e-05
2.251734381e-05
2.25172648e-05