/*--------------------------------*- C++ -*----------------------------------*\
  =========                 |
  \\      /  F ield         | OpenFOAM: The Open Source CFD Toolbox
   \\    /   O peration     | Website:  https://openfoam.org
    \\  /    A nd           | Version:  8
     \\/     M anipulation  |
\*---------------------------------------------------------------------------*/






FoamFile
{
    version     2.0;
    format      ascii;
    class       volScalarField;
    location    "0";
    object      pDDES;
}
// * * * * * * * * * * * * * * * * * * * * * * * * * * * * * * * * * * * * * //

dimensions      [0 2 -2 0 0 0 0];


internalField   nonuniform List<scalar> 
25404
(
9.010069334e-05
9.079455049e-05
9.010081703e-05
9.079204756e-05
9.151185077e-05
9.009085625e-05
9.078938456e-05
9.150949336e-05
9.222832887e-05
9.007037443e-05
9.078261064e-05
9.149730613e-05
9.222769586e-05
9.293392213e-05
9.00306768e-05
9.076030983e-05
9.147217497e-05
9.221480286e-05
9.292988398e-05
9.365907317e-05
8.995288226e-05
9.069959924e-05
9.142408817e-05
9.218959894e-05
9.292471805e-05
9.365509322e-05
9.43744235e-05
8.980705752e-05
9.056524868e-05
9.133273852e-05
9.214303282e-05
9.291278548e-05
9.36378492e-05
9.436770051e-05
9.505710477e-05
8.955440717e-05
9.032091475e-05
9.116895671e-05
9.205483366e-05
9.288174624e-05
9.360639524e-05
9.434856474e-05
9.504714399e-05
9.575624426e-05
8.9155772e-05
8.993678057e-05
9.089841478e-05
9.189304546e-05
9.280638187e-05
9.354810754e-05
9.431537183e-05
9.503087495e-05
9.573754505e-05
9.634645539e-05
8.857985085e-05
8.945728769e-05
9.049121581e-05
9.162222705e-05
9.265165136e-05
9.344040882e-05
9.425684402e-05
9.500693704e-05
9.570898692e-05
9.635069728e-05
9.672515444e-05
8.751466521e-05
8.923831774e-05
8.993579831e-05
9.1206668e-05
9.238013445e-05
9.32523908e-05
9.415127715e-05
9.496101848e-05
9.566222434e-05
9.631300054e-05
9.671075532e-05
9.709771257e-05
8.786834951e-05
8.603969036e-05
8.953973884e-05
9.061965829e-05
9.19601589e-05
9.29498492e-05
9.39643578e-05
9.486515773e-05
9.558165038e-05
9.625921666e-05
9.670102736e-05
9.709995356e-05
9.75264993e-05
8.81955857e-05
8.615907427e-05
8.419777441e-05
8.974198136e-05
9.141962801e-05
9.249577852e-05
9.365933511e-05
9.468360804e-05
9.544553177e-05
9.617294563e-05
9.667781706e-05
9.70930123e-05
9.752879851e-05
9.796265658e-05
8.814516332e-05
8.644791524e-05
8.446160064e-05
8.269010868e-05
8.992197399e-05
9.110859537e-05
9.187181422e-05
9.319721721e-05
9.437758126e-05
9.522261826e-05
9.603302897e-05
9.662861703e-05
9.706864512e-05
9.752309415e-05
9.796304948e-05
9.843418229e-05
8.850055019e-05
8.638662985e-05
8.440530655e-05
8.311008423e-05
8.099764818e-05
9.029313514e-05
9.141676856e-05
9.255151963e-05
9.392129869e-05
9.488304204e-05
9.581244376e-05
9.652944573e-05
9.701518866e-05
9.750467871e-05
9.796320956e-05
9.843293083e-05
9.891769878e-05
8.875835192e-05
8.65523325e-05
8.1256665e-05
8.479085227e-05
7.725912292e-05
9.009097994e-05
9.165638767e-05
9.336232324e-05
9.440092253e-05
9.547792433e-05
9.634644084e-05
9.691066953e-05
9.746319847e-05
9.795839287e-05
9.842609143e-05
9.891892842e-05
9.940322343e-05
8.831801097e-05
8.721544873e-05
8.113557851e-05
7.789791562e-05
8.455124771e-05
9.188205877e-05
8.997163968e-05
9.305224376e-05
9.378085815e-05
9.500148735e-05
9.604516526e-05
9.672479791e-05
9.737766959e-05
9.793644858e-05
9.840705025e-05
9.891038644e-05
9.940186283e-05
9.991792467e-05
8.834986511e-05
7.841144543e-05
8.076621452e-05
7.454585284e-05
8.47014453e-05
9.324864368e-05
9.17614525e-05
9.014560055e-05
9.436023538e-05
9.559370665e-05
9.642196528e-05
9.721550305e-05
9.787321324e-05
9.836450772e-05
9.889192006e-05
9.940036398e-05
9.991534171e-05
0.0001004375736
9.035204857e-05
8.821385563e-05
8.148999768e-05
7.543519314e-05
6.873490202e-05
8.486796287e-05
9.331940237e-05
9.164799849e-05
9.50118847e-05
9.596772725e-05
9.693817992e-05
9.773373313e-05
9.827805479e-05
9.885315376e-05
9.939360461e-05
9.990531544e-05
0.0001004362057
0.0001009418047
9.134024003e-05
9.16828576e-05
8.771698049e-05
7.594889757e-05
8.157175762e-05
8.505043661e-05
7.054948219e-05
9.462024173e-05
9.341078839e-05
9.535016579e-05
9.650713037e-05
9.747906734e-05
9.811746713e-05
9.877292905e-05
9.936992137e-05
9.988294187e-05
0.0001004234218
0.0001009364059
0.0001014657246
9.136381414e-05
9.336481162e-05
9.318991215e-05
9.329307068e-05
8.705250366e-05
7.597495278e-05
7.184268179e-05
8.199478907e-05
9.481837333e-05
9.589389083e-05
9.707555728e-05
9.784795839e-05
9.862115985e-05
9.930563101e-05
9.983709606e-05
0.000100400619
0.000100929843
0.0001014585796
0.0001019924966
9.081196913e-05
9.326954023e-05
9.319157834e-05
9.507754294e-05
9.486991621e-05
9.494370897e-05
9.077241702e-05
8.733154391e-05
7.783938781e-05
8.253577107e-05
9.655116446e-05
9.743621195e-05
9.836081153e-05
9.916660201e-05
9.974710701e-05
0.0001003571961
0.0001009171756
0.0001014435402
0.0001019856354
0.0001025047095
9.420250717e-05
9.457892884e-05
9.469650831e-05
9.634768503e-05
9.634623711e-05
9.621829668e-05
9.071666136e-05
9.4265808e-05
9.044629405e-05
8.765811071e-05
7.906794781e-05
8.282033377e-05
9.688010323e-05
9.795774531e-05
9.891625086e-05
9.958300507e-05
0.000100272242
0.0001008867475
0.0001014146983
0.0001019658521
0.0001024927406
0.0001030345084
9.61797341e-05
9.595138545e-05
9.616577154e-05
9.637468611e-05
9.738368681e-05
9.758969827e-05
9.39103993e-05
9.612398571e-05
9.601342026e-05
9.057618445e-05
9.349374159e-05
9.050716471e-05
8.648394578e-05
7.829982496e-05
8.331464778e-05
8.302587958e-05
9.851685172e-05
9.930810484e-05
0.0001001137935
0.0001008141553
0.0001013596266
0.0001019340343
0.0001024777666
0.0001030204803
0.0001035682581
9.788296302e-05
9.76176234e-05
9.781975677e-05
9.774691716e-05
9.797749954e-05
9.829498595e-05
9.686493286e-05
9.74067807e-05
9.743167902e-05
9.300916281e-05
9.655413305e-05
9.15981218e-05
9.252746531e-05
8.59531865e-05
7.80623086e-05
8.465746214e-05
8.531968342e-05
9.888376371e-05
9.984330973e-05
0.0001006655366
0.0001012574867
0.0001018771873
0.0001024549856
0.000102995029
0.0001035492169
0.0001039316121
9.915944247e-05
9.90202243e-05
9.910315566e-05
9.881534061e-05
9.877861157e-05
9.858351405e-05
9.898406279e-05
9.902018064e-05
9.631929424e-05
9.860226419e-05
9.83997088e-05
9.097025031e-05
9.440488793e-05
9.492687968e-05
9.530073294e-05
7.73786378e-05
8.395571058e-05
8.896415238e-05
8.950502524e-05
8.980651182e-05
9.942049655e-05
0.000100401332
0.0001010773194
0.0001017742907
0.0001024103985
0.0001029543128
0.0001035113528
0.0001039329072
0.00010405793
0.0001002500576
0.0001001792334
9.945951751e-05
9.978182788e-05
0.000100432575
0.0001002405625
0.0001004926889
0.0001003115976
9.858990234e-05
9.847766341e-05
0.000100491714
0.0001002658173
9.428930207e-05
9.45970678e-05
9.733705519e-05
9.830349882e-05
9.884955944e-05
7.62402924e-05
8.274995344e-05
8.763569349e-05
8.82631939e-05
9.348319145e-05
9.41442122e-05
9.53054041e-05
9.998940368e-05
0.000100785488
0.000101595695
0.0001023193618
0.000102881706
0.0001034522211
0.0001038912451
0.000104038314
0.0001041990254
0.0001007351966
0.0001008679028
0.0001009173211
0.0001003527141
0.0001016080641
0.0001014752197
0.0001016897586
0.0001012071734
0.0001004929945
9.995638538e-05
0.0001013585279
0.0001013174842
9.728263831e-05
9.686832345e-05
0.0001004375445
0.0001001471392
0.0001002145509
0.0001002428035
0.0001005095764
7.479678607e-05
8.136571705e-05
8.573890227e-05
8.670068928e-05
9.113445412e-05
9.269894508e-05
9.629179112e-05
9.627205145e-05
9.719401714e-05
9.663397941e-05
9.779643005e-05
9.817337559e-05
0.0001013041183
0.0001021456483
0.0001027497492
0.0001033530134
0.0001038331538
0.0001040259522
0.0001041995129
0.0001044124365
0.0001013888686
0.000101630234
0.0001021438511
0.0001023012301
0.0001025842357
0.0001024218873
0.0001019450647
0.0001011488494
0.0001010569104
0.0001024140802
0.000102493359
9.97268362e-05
9.950295498e-05
0.0001016907263
0.000102025173
0.0001014923982
0.0001018671028
0.0001018753246
0.000102260572
7.312781963e-05
7.886013191e-05
8.402947424e-05
8.449496818e-05
8.843802789e-05
9.015241812e-05
9.534767742e-05
9.585067164e-05
9.5321142e-05
9.873294766e-05
9.885914915e-05
0.0001002812205
9.912373935e-05
0.0001007730752
0.0001014889058
0.0001018497787
0.0001025230667
0.0001031865686
0.000103741062
0.000104000479
0.0001041912765
0.0001044125893
0.0001046420002
0.0001021628632
0.0001028101833
0.0001029585183
0.0001030121712
0.0001032780128
0.0001029642881
0.0001025164675
0.0001022940123
0.0001022325887
0.0001035325404
0.000103194543
0.0001015107264
0.000101619793
0.0001012197245
0.0001014567606
0.0001033852313
0.0001027301478
0.0001036313697
0.0001029925043
0.0001032189393
0.0001034828529
7.132213068e-05
7.6860837e-05
8.357377374e-05
8.543587319e-05
8.672823606e-05
9.201603825e-05
9.363100253e-05
9.708837752e-05
9.770395991e-05
9.724580741e-05
9.831650823e-05
0.0001004514997
0.0001009138359
0.0001023228397
0.0001019476549
0.0001018662733
0.0001025125603
0.0001024930243
0.0001029781124
0.0001026812461
0.0001026777754
0.0001029194245
0.0001035884125
0.0001039470808
0.0001041662326
0.0001044070959
0.0001046414691
0.0001049076236
0.0001033100416
0.0001034600136
0.0001036349568
0.0001037580369
0.000103341903
0.0001033860462
0.0001034322049
0.0001041662035
0.0001039207564
0.0001038127448
0.0001032388609
0.0001033997469
0.0001033142253
0.0001045960526
0.0001038595947
0.0001047533951
0.0001042392105
0.0001043902521
0.0001045844911
7.470948913e-05
6.942806795e-05
8.088778122e-05
8.581901784e-05
8.705713844e-05
8.896744839e-05
9.039604629e-05
9.374557703e-05
9.454725659e-05
9.626409155e-05
9.561788465e-05
9.947760554e-05
9.883947496e-05
0.0001002351419
9.980417963e-05
0.0001018220792
0.0001021178905
0.0001025344827
0.0001024301891
0.0001039088384
0.0001031670545
0.000102828737
0.0001032290747
0.0001041286014
0.0001040641801
0.0001036218164
0.0001044605378
0.0001042452859
0.0001038392802
0.0001041096693
0.0001043878292
0.0001046399848
0.0001049048878
0.0001051869549
0.0001036401372
0.0001037937327
0.0001040873321
0.0001040667703
0.000104026316
0.0001042133736
0.0001045973549
0.0001045306126
0.000104266619
0.0001042165095
0.0001041133073
0.0001040372299
0.0001057816553
0.0001049129714
0.0001055863686
0.0001053621454
0.000104954328
0.0001050963983
0.0001052229491
7.835436554e-05
7.250548515e-05
6.749675958e-05
8.300362242e-05
8.423079271e-05
8.876602806e-05
9.076421702e-05
9.11082534e-05
9.18511505e-05
9.310829773e-05
9.266556299e-05
9.572927956e-05
9.674169996e-05
9.871586371e-05
9.788967145e-05
0.000100829624
0.0001011599452
0.0001011434288
0.0001017300092
0.0001015149246
0.0001015214948
0.0001012067733
0.0001034788147
0.0001038296177
0.0001040103161
0.000104043851
0.0001045797835
0.0001040378047
0.000104314764
0.0001046473117
0.0001047424084
0.0001049373386
0.0001047070837
0.0001055203611
0.0001053282249
0.0001039969211
0.000104342791
0.0001046317411
0.0001048958729
0.0001051855215
0.0001054631721
0.0001043706579
0.0001042478179
0.0001046493053
0.0001048484919
0.0001048706326
0.0001049516941
0.0001045599565
0.0001052118751
0.0001050672654
0.0001050552528
0.0001064995595
0.000105950734
0.0001055761822
0.0001055997054
0.00010628991
0.0001060263967
0.000105576386
0.000105725223
0.0001056861001
8.022668771e-05
8.143512241e-05
7.581750106e-05
7.030115376e-05
8.567457553e-05
8.722860366e-05
9.033592505e-05
9.107355436e-05
9.274510376e-05
9.265894187e-05
9.19932063e-05
9.390023479e-05
9.519006562e-05
9.469876386e-05
9.753181075e-05
9.881708684e-05
0.0001004495425
9.999983013e-05
9.915956616e-05
9.956811846e-05
0.000102143531
0.0001024075027
0.0001020722702
0.0001023173463
0.0001024135563
0.0001030302374
0.0001027707185
0.0001029519481
0.0001042872609
0.0001047075566
0.0001049482162
0.000104797502
0.0001055304165
0.0001050351275
0.0001053171873
0.0001056190376
0.0001056437977
0.000105827814
0.000105691106
0.0001062669544
0.0001064191383
0.0001046032194
0.0001048744307
0.000105175277
0.0001054579479
0.0001057730842
0.0001045284152
0.0001051102226
0.0001053319575
0.0001050287829
0.0001052073421
0.0001047344122
0.0001058926791
0.0001059244023
0.0001061714138
0.0001069914069
0.0001066725672
0.0001062750744
0.0001063024101
0.0001068372148
0.0001064956014
0.0001060323557
0.0001062018418
0.0001059931601
8.268059173e-05
7.867297973e-05
8.419210644e-05
7.74899745e-05
7.332384121e-05
8.709315443e-05
8.775542665e-05
8.936380618e-05
8.867641736e-05
9.208635311e-05
9.296830103e-05
9.400356066e-05
9.473681712e-05
9.385019803e-05
9.501142631e-05
9.667137056e-05
9.586200758e-05
9.853267693e-05
9.88515967e-05
9.993022832e-05
9.935873823e-05
0.0001000729171
0.0001016911046
0.0001012521898
0.0001007121464
0.0001025592501
0.0001028503975
0.0001033914596
0.0001031073625
0.000103704544
0.0001036911854
0.000103175611
0.0001035608948
0.0001049630955
0.0001052328589
0.0001055016983
0.0001052745647
0.0001066078403
0.000105905252
0.0001063269665
0.0001063050586
0.0001064434327
0.0001064653989
0.0001065457327
0.0001063504315
0.0001062910233
0.0001069000864
0.0001070798389
0.0001048281119
0.0001051543004
0.0001054522872
0.0001057663321
0.0001060956711
0.0001054092572
0.0001056584224
0.0001051125728
0.0001053480446
0.0001065838951
0.0001066090263
0.0001068244164
0.0001073161402
0.0001071393199
0.0001068150304
0.0001067848207
0.000107220214
0.0001068098354
0.0001063266391
0.0001065224569
0.0001061774747
8.463478298e-05
8.398803766e-05
8.122861618e-05
8.619019354e-05
8.553557564e-05
7.976297638e-05
7.597633521e-05
7.484010712e-05
8.873005572e-05
8.955950034e-05
9.120441246e-05
9.0352798e-05
9.286943532e-05
9.326086729e-05
9.414369561e-05
9.373376088e-05
9.478311404e-05
9.531497199e-05
9.585348744e-05
9.570541442e-05
9.55048672e-05
9.468877397e-05
9.502033208e-05
9.639327618e-05
9.591982234e-05
9.812589997e-05
9.771412442e-05
9.686559497e-05
9.729198791e-05
9.981601033e-05
0.0001001102137
0.0001011241111
0.0001007489045
0.0001004014412
0.0001022679571
0.0001016257011
0.0001011773929
0.0001032899454
0.000103488157
0.000104264218
0.0001039446288
0.0001045716126
0.0001042635413
0.0001037834882
0.0001043903249
0.0001058854104
0.0001058004709
0.0001060839058
0.0001062806696
0.0001058513953
0.0001072554587
0.000106636915
0.000106460735
0.0001069246282
0.0001069024584
0.0001071109291
0.0001071255101
0.0001072303203
0.0001069955761
0.0001069079226
0.0001073829189
0.0001075348919
0.0001054411841
0.0001057544941
0.0001060913419
0.0001063819509
0.0001055876637
0.000105861589
0.0001054142631
0.0001070817452
0.0001071090956
0.0001072745072
0.0001075112668
0.0001074246611
0.0001071848092
0.0001070962317
0.0001074678148
0.0001070048529
0.0001064984972
0.0001067225094
0.0001062776282
8.632689423e-05
8.310789417e-05
8.551732753e-05
8.247298683e-05
8.793617599e-05
8.711194096e-05
8.098329999e-05
7.836363511e-05
8.160266589e-05
7.697017281e-05
8.954838995e-05
8.996597899e-05
9.080343443e-05
9.038634744e-05
9.240521467e-05
9.202691581e-05
9.121155017e-05
9.161888738e-05
9.383931319e-05
9.426064935e-05
9.510777454e-05
9.475795378e-05
9.662427328e-05
9.661976219e-05
9.676373156e-05
9.630864224e-05
9.544509521e-05
9.587979002e-05
9.759383829e-05
9.722004324e-05
9.931212844e-05
9.899572615e-05
9.834613593e-05
9.858647536e-05
0.0001004451624
0.0001007919782
0.0001018825351
0.0001015120797
0.0001011689164
0.0001030254498
0.0001023801742
0.0001018618059
0.0001039520503
0.0001041561482
0.0001051984946
0.0001047782644
0.0001052384905
0.0001050441788
0.000104773666
0.0001044366363
0.0001051471918
0.0001064435346
0.000105849831
0.0001064066237
0.000106686799
0.0001069247737
0.0001064978278
0.000107724285
0.0001073081366
0.0001070632497
0.0001073327221
0.0001073645544
0.0001076204862
0.0001076186745
0.0001076786721
0.0001074230313
0.0001073705644
0.0001077087218
0.0001078332352
0.0001057316549
0.0001060737122
0.0001063718955
0.0001066667101
0.0001056839246
0.0001059779606
0.0001073962339
0.0001074346073
0.0001075589898
0.0001076181725
0.0001075843029
0.0001074198226
0.0001072833038
0.000107617765
0.0001071184961
0.0001065863253
0.0001068376368
0.0001063285963
8.748736582e-05
8.7083361e-05
8.474848437e-05
8.627595525e-05
8.667503425e-05
8.394953329e-05
8.913397323e-05
8.871991304e-05
8.789470303e-05
8.830371371e-05
8.014078776e-05
8.240825264e-05
7.953920431e-05
8.32013975e-05
7.813220873e-05
7.871510024e-05
9.037976997e-05
9.073584806e-05
9.15876517e-05
9.123169002e-05
9.33088595e-05
9.293165931e-05
9.207831317e-05
9.243546083e-05
9.398887778e-05
9.461295122e-05
9.56997319e-05
9.52712071e-05
9.732826584e-05
9.716368368e-05
9.739448433e-05
9.696400957e-05
9.602923092e-05
9.649145795e-05
9.855008102e-05
9.796112136e-05
0.0001001738055
9.976915317e-05
9.915727424e-05
9.956266877e-05
0.0001008574036
0.0001011407003
0.0001022726719
0.0001026479949
0.0001015467496
0.0001038728951
0.0001029608102
0.0001025409292
0.0001044846649
0.0001047326732
0.0001057543559
0.0001053969318
0.0001058047928
0.0001056447363
0.0001052989464
0.0001050093124
0.000105662577
0.0001068372221
0.0001064245735
0.0001068594138
0.0001071140869
0.0001073095773
0.0001069610662
0.0001080401707
0.0001077573252
0.000107527514
0.0001076013868
0.0001076778935
0.0001079666108
0.0001079425565
0.0001079575304
0.0001076799817
0.0001076696208
0.0001079095964
0.0001080124712
0.0001060406212
0.0001063553718
0.0001066586556
0.0001069667487
0.0001075812033
0.000107629523
0.0001077229244
0.0001076707049
0.000107659871
0.0001075609471
0.0001073867388
0.0001077045454
0.0001071825827
0.0001066268596
0.0001069003047
8.821790107e-05
8.787400293e-05
8.587862249e-05
8.548483311e-05
8.705954679e-05
8.739869372e-05
8.468399756e-05
8.507584425e-05
8.988757327e-05
8.953484212e-05
8.86988928e-05
8.904738934e-05
8.171117224e-05
8.312019054e-05
8.350001735e-05
8.096131205e-05
8.429480658e-05
8.392078598e-05
7.953949535e-05
8.02558352e-05
9.061138553e-05
9.104709898e-05
9.190401033e-05
9.14681732e-05
9.362431592e-05
9.31750983e-05
9.231911827e-05
9.275097545e-05
9.430672071e-05
9.475670231e-05
9.613154543e-05
9.588792454e-05
9.782516281e-05
9.779324319e-05
9.792601486e-05
9.751028847e-05
9.653955203e-05
9.703934484e-05
9.891109949e-05
9.83690843e-05
0.0001006114617
0.0001003119614
9.96789895e-05
9.997909365e-05
0.0001012497669
0.000101602127
0.000102786551
0.0001030443964
0.0001023155346
0.0001019904812
0.000104336119
0.0001036488247
0.000103367609
0.0001030258281
0.0001048789127
0.0001051468498
0.0001061478033
0.0001059758579
0.0001062438096
0.0001060119466
0.0001056828041
0.0001054172899
0.0001061918738
0.000107093183
0.000106791078
0.0001071567167
0.0001073813255
0.0001075420296
0.0001072600135
0.0001082375529
0.0001080445727
0.0001078327987
0.0001077591442
0.0001078686328
0.0001081868322
0.0001081415539
0.0001081195005
0.0001078215719
0.0001078469722
0.0001080231596
0.0001081107839
0.0001066463446
0.0001069551436
0.0001072558298
0.0001076778135
0.0001077363559
0.000107806809
0.0001076964545
0.0001076901171
0.0001076421613
0.0001074420506
0.0001077526249
0.0001072201558
0.0001069344507
8.851533494e-05
8.809469728e-05
8.659120795e-05
8.625671035e-05
8.727832756e-05
8.7692737e-05
8.545612945e-05
8.579443238e-05
9.01940075e-05
8.976229583e-05
8.892299229e-05
8.934949437e-05
8.275957225e-05
8.242639888e-05
8.38890337e-05
8.424231783e-05
8.168320346e-05
8.204694313e-05
8.501191769e-05
8.468238229e-05
8.026153228e-05
8.060787513e-05
8.131633513e-05
8.096595411e-05
9.104463243e-05
9.149406105e-05
9.236065671e-05
9.191063873e-05
9.396603855e-05
9.356686496e-05
9.276146011e-05
9.318749653e-05
9.469984798e-05
9.545440844e-05
9.508022777e-05
9.651354776e-05
9.620613855e-05
9.818524268e-05
9.83098289e-05
9.833704098e-05
9.792901255e-05
9.697252244e-05
9.746451542e-05
9.912107635e-05
9.865807078e-05
0.000100973979
0.0001005809318
0.0001000269767
0.0001002637946
0.0001017585237
0.0001021097341
0.0001032252185
0.0001033419248
0.0001028339757
0.0001024541198
0.0001046695397
0.0001041509095
0.0001038001792
0.0001034948509
0.0001051339786
0.0001054112072
0.0001064157259
0.0001064125972
0.0001065445031
0.0001062459414
0.0001059302449
0.0001056785622
0.0001065902616
0.000107244181
0.0001070155558
0.0001073351377
0.0001075362452
0.0001076725021
0.0001074376851
0.0001083534517
0.0001082207309
0.0001080189468
0.0001078421265
0.0001079739523
0.000108316628
0.0001082553354
0.0001082041999
0.0001078889836
0.0001079426947
0.0001080834627
0.0001081609225
0.0001072450104
0.0001075166438
0.0001077223424
0.0001077895649
0.0001078471832
0.0001077065826
0.0001076999761
0.0001076904446
0.0001074741813
0.0001077800698
8.893986524e-05
8.850849554e-05
8.688199887e-05
8.647305367e-05
8.768789849e-05
8.811269072e-05
8.568103658e-05
8.608293865e-05
9.063243488e-05
9.018829587e-05
8.934218204e-05
8.978026017e-05
8.348921983e-05
8.31740108e-05
8.413857722e-05
8.452632028e-05
8.243139018e-05
8.274399443e-05
8.529810293e-05
8.490288747e-05
8.100857667e-05
8.130280912e-05
8.201102173e-05
8.170983347e-05
9.150196274e-05
9.194127051e-05
9.282304381e-05
9.237967606e-05
9.437926929e-05
9.402273281e-05
9.323947597e-05
9.364083962e-05
9.506862261e-05
9.58898454e-05
9.542771295e-05
9.680329094e-05
9.643870726e-05
9.866924665e-05
9.871612565e-05
9.862225852e-05
9.821273125e-05
9.726730786e-05
9.774682258e-05
9.968863742e-05
9.936085553e-05
9.900229634e-05
0.0001013931687
0.0001010019623
0.0001004144506
0.0001006499078
0.0001021218995
0.0001024754674
0.0001035731329
0.0001035534806
0.0001031246939
0.000102789505
0.0001048855629
0.0001044595992
0.0001041332725
0.0001038544942
0.0001052850203
0.0001055662142
0.00010658471
0.0001067054545
0.0001067338162
0.0001063924792
0.000106079453
0.0001058325215
0.0001068490601
0.0001073254825
0.0001071464721
0.0001074323009
0.000107617976
0.0001077356137
0.0001075332257
0.000108419059
0.0001083229508
0.000108123917
0.0001078813875
0.0001080270449
0.0001083890675
0.0001083155657
0.0001082453819
0.0001079181093
0.0001079898138
0.0001081144874
0.0001081880037
0.0001074979518
0.000107730586
0.0001077419001
0.0001078149508
0.0001078668793
0.0001077189372
0.0001077047491
0.0001077224006
0.000107784268
8.936330414e-05
8.894404164e-05
8.729787805e-05
8.687905211e-05
8.811967564e-05
8.853181498e-05
8.60844666e-05
8.649557276e-05
9.106965445e-05
9.063650941e-05
8.978274855e-05
9.020986909e-05
8.376866754e-05
8.338809857e-05
8.453953342e-05
8.493566565e-05
8.265244833e-05
8.302633069e-05
8.57085106e-05
8.530471678e-05
8.122450527e-05
8.158358833e-05
8.229399828e-05
8.193152462e-05
9.183478687e-05
9.227693954e-05
9.31743125e-05
9.272199532e-05
9.473729733e-05
9.43795676e-05
9.35946664e-05
9.399342525e-05
9.533273987e-05
9.610461711e-05
9.567815141e-05
9.699151997e-05
9.659444913e-05
9.907057392e-05
9.900274745e-05
9.880815196e-05
9.839767154e-05
9.745166608e-05
9.792438505e-05
0.0001001381606
9.972436965e-05
9.939372831e-05
0.0001017581671
0.0001013712972
0.0001006979728
0.0001009994958
0.0001023552832
0.000102717946
0.0001038139453
0.0001036887988
0.0001033116423
0.0001030107596
0.000105013889
0.0001046457546
0.0001043499942
0.0001040919014
0.0001053657325
0.0001056460023
0.0001066839031
0.0001068868223
0.0001068436541
0.0001064782846
0.0001061627336
0.0001059135611
0.0001070064973
0.000107366257
0.0001072161176
0.0001074798201
0.0001076567569
0.0001077635534
0.0001075803739
0.0001084577962
0.0001083816096
0.0001081795126
0.000107898908
0.0001080503062
0.0001084297255
0.0001083480965
0.0001082665694
0.0001079322974
0.0001080142538
0.0001081319133
0.0001082046219
0.0001077497654
0.0001078265996
0.0001078787755
0.000107705142
8.967853501e-05
8.92596654e-05
8.771276771e-05
8.730670379e-05
8.84332112e-05
8.884503768e-05
8.650971722e-05
8.690779214e-05
9.139676695e-05
9.096132271e-05
9.010195936e-05
9.052966197e-05
8.417772187e-05
8.378917846e-05
8.49633434e-05
8.534583321e-05
8.305418305e-05
8.343531226e-05
8.611927478e-05
8.572901424e-05
8.162767335e-05
8.199337026e-05
8.270693797e-05
8.233379049e-05
9.205396782e-05
9.249967843e-05
9.341252007e-05
9.294915799e-05
9.499346925e-05
9.462661546e-05
9.383485303e-05
9.423543088e-05
9.55035357e-05
9.623528604e-05
9.584009968e-05
9.710414452e-05
9.668978601e-05
9.935972048e-05
9.918979049e-05
9.892079834e-05
9.851106734e-05
9.756059444e-05
9.803122521e-05
0.0001003981743
0.0001000045086
9.968746599e-05
0.0001019878691
0.0001016041788
0.0001008838008
0.0001012225694
0.0001024939556
0.0001028680708
0.0001039632552
0.0001037682523
0.0001034309607
0.0001031495049
0.0001050830178
0.0001047560218
0.0001044806777
0.000104237799
0.0001054037784
0.0001056826004
0.0001067399571
0.0001069906139
0.0001069024293
0.0001065274701
0.0001062062365
0.0001059516799
0.0001070948347
0.000107387692
0.0001072500454
0.0001075032487
0.0001076750486
0.000107775275
0.0001076020562
0.0001084859396
0.000108417953
0.0001082068775
0.0001079075446
0.0001080588845
0.0001084553514
0.0001083684401
0.0001082823001
0.0001079403737
0.0001080270158
0.0001081363662
0.0001082165109
0.0001077560446
0.0001078286587
0.0001078845162
8.988501941e-05
8.946556773e-05
8.80230873e-05
8.76175327e-05
8.863799303e-05
8.90503361e-05
8.681928011e-05
8.721619815e-05
9.161190246e-05
9.117341688e-05
9.03097316e-05
9.073908586e-05
8.458770026e-05
8.421331586e-05
8.527256432e-05
8.565337339e-05
8.347850962e-05
8.384573448e-05
8.642658941e-05
8.603819151e-05
8.205381891e-05
8.240659372e-05
8.311874262e-05
8.275855362e-05
9.218500054e-05
9.263483662e-05
9.356287774e-05
9.308907465e-05
9.515659622e-05
9.478347056e-05
9.398649854e-05
9.438862617e-05
9.560402395e-05
9.631512512e-05
9.593928553e-05
9.716658678e-05
9.674397006e-05
9.955154383e-05
9.930280794e-05
9.898300777e-05
9.857560508e-05
9.762029367e-05
9.809109906e-05
0.0001005568556
0.0001001908749
9.98816613e-05
0.0001021209173
0.0001017387112
0.0001009955886
0.0001013557485
0.0001025694
0.0001029551495
0.0001040486168
0.0001038124174
0.0001035008318
0.0001032309228
0.0001051179133
0.000104815801
0.0001045545214
0.0001043187513
0.0001054218155
0.0001056978363
0.0001067728081
0.0001070443977
0.0001069346035
0.0001065581309
0.0001062274459
0.0001059679635
0.0001071410079
0.0001074011379
0.0001072682062
0.000107515807
0.0001076831104
0.0001077823908
0.0001076123008
0.00010850736
0.000108446111
0.0001082204908
0.0001079144276
0.0001080588117
0.0001084663527
0.0001083831157
0.000108292661
0.0001079458889
0.0001080341317
9.000804857e-05
8.95879275e-05
8.822634118e-05
8.782042278e-05
8.875990898e-05
8.917257946e-05
8.702116611e-05
8.741857891e-05
9.17402358e-05
9.129892715e-05
9.043303726e-05
9.086325008e-05
8.4896099e-05
8.452311158e-05
8.547480684e-05
8.585518663e-05
8.378973871e-05
8.415465709e-05
8.662855544e-05
8.623975737e-05
8.236793656e-05
8.271699335e-05
8.342815272e-05
8.307180542e-05
9.225639224e-05
9.270985174e-05
9.365172446e-05
9.316935029e-05
9.525073256e-05
9.487441275e-05
9.407581092e-05
9.447865887e-05
9.5657364e-05
9.636036702e-05
9.599404439e-05
9.719916852e-05
9.677363414e-05
9.966477955e-05
9.936335846e-05
9.901371959e-05
9.860990394e-05
9.764929564e-05
9.812143981e-05
0.000100653655
0.0001003060388
0.0001000000339
0.0001021900171
0.0001018092298
0.0001010589331
0.0001014282388
0.0001026073442
0.0001030025887
0.0001040939314
0.0001038376504
0.0001035405803
0.0001032760847
0.0001051361323
0.0001048461781
0.0001045931567
0.0001043602606
0.000105431609
0.0001057043264
0.0001067962512
0.0001070726867
0.0001069550199
0.000106579173
0.0001062376832
0.0001059739079
0.0001071646766
0.0001074081592
0.0001072809027
0.0001075208202
0.0001076899207
0.0001077870402
0.0001076136614
0.0001084458709
0.0001082398303
9.007388871e-05
8.965363668e-05
8.834722394e-05
8.794094902e-05
8.88256036e-05
8.923823771e-05
8.714106662e-05
8.753860311e-05
9.180895722e-05
9.136604058e-05
9.049922664e-05
9.092967957e-05
8.509824693e-05
8.472597256e-05
8.559454727e-05
8.597468695e-05
8.399320359e-05
8.435755444e-05
8.674808487e-05
8.635930135e-05
8.25730458e-05
8.29225537e-05
8.363267989e-05
8.327543037e-05
9.228986892e-05
9.274638433e-05
9.370042244e-05
9.32107796e-05
9.529956878e-05
9.492208483e-05
9.412371583e-05
9.452673839e-05
9.568277164e-05
9.638493793e-05
9.602193313e-05
9.72139751e-05
9.679029608e-05
9.972661792e-05
9.939380107e-05
9.902902821e-05
9.862607112e-05
9.766109724e-05
9.813516954e-05
0.0001007087776
0.0001003710859
0.0001000638877
0.0001022218858
0.0001018417679
0.0001010916312
0.0001014634036
0.0001026258542
0.0001030284839
0.0001041174837
0.0001038527771
0.000103563536
0.0001033014778
0.0001051483923
0.0001048624836
0.0001046125981
0.0001043814118
0.0001054352906
0.0001057081317
0.00010680985
0.0001070889994
0.0001069653226
0.0001065793695
0.0001062535666
0.0001059717542
0.0001071787919
0.0001072887389
9.010428039e-05
8.96840429e-05
8.841211093e-05
8.800529758e-05
8.885654097e-05
8.926885494e-05
8.720485494e-05
8.760266064e-05
9.184060036e-05
9.139688336e-05
9.052969108e-05
9.096031863e-05
8.521864947e-05
8.484635327e-05
8.565864846e-05
8.603826427e-05
8.411453746e-05
8.447860455e-05
8.681192412e-05
8.642293687e-05
8.269603131e-05
8.304420771e-05
8.3753941e-05
8.3397259e-05
9.23020707e-05
9.276073251e-05
9.37244331e-05
9.322933329e-05
9.532162949e-05
9.494391998e-05
9.41468461e-05
9.4549403e-05
9.56930453e-05
9.63989587e-05
9.603514627e-05
9.722198592e-05
9.680006042e-05
9.975484863e-05
9.940761083e-05
9.903734463e-05
9.863666492e-05
9.766689618e-05
9.814173245e-05
0.0001007367246
0.0001004035003
0.0001000942357
0.0001022363504
0.000101856509
0.0001011094791
0.0001014807713
0.0001026351019
0.0001030449057
0.0001041310679
0.0001038633927
0.0001035795212
0.0001033174922
0.0001051555155
0.0001048731865
0.0001046239049
0.0001043924203
0.000107094369
0.0001071878651
9.011510701e-05
8.969486953e-05
8.844217518e-05
8.803489618e-05
8.886796422e-05
8.927993622e-05
8.723432984e-05
8.763212099e-05
9.185189265e-05
9.140780458e-05
9.054035763e-05
9.097120346e-05
8.528291073e-05
8.491102199e-05
8.568793419e-05
8.606759366e-05
8.417934441e-05
8.454339695e-05
8.684120257e-05
8.64521644e-05
8.276212611e-05
8.311007696e-05
8.381921361e-05
8.346250252e-05
9.230389696e-05
9.276375931e-05
9.373512876e-05
9.323551058e-05
9.533052071e-05