/*--------------------------------*- C++ -*----------------------------------*\
  =========                 |
  \\      /  F ield         | OpenFOAM: The Open Source CFD Toolbox
   \\    /   O peration     | Website:  https://openfoam.org
    \\  /    A nd           | Version:  8
     \\/     M anipulation  |
\*---------------------------------------------------------------------------*/






FoamFile
{
    version     2.0;
    format      ascii;
    class       volSymmTensorField;
    location    "0";
    object      TauDDES;
}
// * * * * * * * * * * * * * * * * * * * * * * * * * * * * * * * * * * * * * //

dimensions      [0 2 -2 0 0 0 0];


internalField   nonuniform List<symmTensor>
25404
(
( 8.864395795e-08 4.288822808e-08 1.046414289e-09 2.078205164e-08 5.059879182e-10 2.824598084e-07 )
( 8.725362477e-08 4.218769689e-08 1.008230943e-09 2.043026193e-08 4.839305623e-10 2.765353031e-07 )
( 3.44878913e-07 1.652952335e-07 3.85423915e-09 7.950572467e-08 1.911583558e-09 1.076018748e-06 )
( 3.416315906e-07 1.637159954e-07 3.703969575e-09 7.873573793e-08 1.822045403e-09 1.063178161e-06 )
( 8.710468791e-08 4.223848649e-08 9.871078399e-10 2.051111636e-08 4.724468594e-10 2.747223675e-07 )
( 9.45634099e-07 4.468764132e-07 9.921533817e-09 2.129768006e-07 4.991178137e-09 2.875217888e-06 )
( 9.371485135e-07 4.429170986e-07 9.515214394e-09 2.110594721e-07 4.750441374e-09 2.850291139e-06 )
( 3.402892332e-07 1.633519844e-07 3.577214969e-09 7.868214169e-08 1.757691659e-09 1.058662519e-06 )
( 8.898761195e-08 4.302351186e-08 9.157990477e-10 2.082833461e-08 4.389962838e-10 2.830772416e-07 )
( 1.938764399e-06 8.983446378e-07 1.941968719e-08 4.235635629e-07 9.904506548e-09 5.739093012e-06 )
( 1.920387604e-06 8.894766097e-07 1.861039678e-08 4.192632161e-07 9.430799253e-09 5.6986255e-06 )
( 9.310194287e-07 4.401500178e-07 9.177007598e-09 2.098134502e-07 4.556593325e-09 2.836630529e-06 )
( 3.447667893e-07 1.649116541e-07 3.380280056e-09 7.915585343e-08 1.655382054e-09 1.078146511e-06 )
( 8.701357501e-08 4.201349668e-08 8.8907115e-10 2.031389634e-08 4.220622185e-10 2.768560137e-07 )
( 3.290681661e-06 1.485243843e-06 3.389032699e-08 6.93374659e-07 1.728222543e-08 9.538919585e-06 )
( 3.259427558e-06 1.469363497e-06 3.261733283e-08 6.851216767e-07 1.654285953e-08 9.478673746e-06 )
( 1.903241355e-06 8.805624248e-07 1.796575511e-08 4.145680919e-07 9.011752233e-09 5.663563115e-06 )
( 9.407717698e-07 4.429463161e-07 8.701610099e-09 2.103549832e-07 4.282083133e-09 2.87900184e-06 )
( 3.391662631e-07 1.621008607e-07 3.193650011e-09 7.775542343e-08 1.544749106e-09 1.064745334e-06 )
( 8.58428848e-08 4.15378949e-08 8.283279618e-10 2.012678912e-08 3.891225953e-10 2.745684355e-07 )
( 4.809619895e-06 2.099896165e-06 5.702566597e-08 9.760792636e-07 2.827782808e-08 1.383783001e-05 )
( 4.768132385e-06 2.077420731e-06 5.562962713e-08 9.636635241e-07 2.744419803e-08 1.37531033e-05 )
( 3.227761226e-06 1.451886988e-06 3.146069361e-08 6.754288506e-07 1.577065412e-08 9.40683185e-06 )
( 1.922066531e-06 8.852263136e-07 1.716680309e-08 4.151919768e-07 8.509171145e-09 5.73850275e-06 )
( 9.273887258e-07 4.362065056e-07 8.209719127e-09 2.069527199e-07 3.987423725e-09 2.85397573e-06 )
( 3.343963897e-07 1.599560022e-07 3.04511838e-09 7.676475633e-08 1.462874266e-09 1.058142857e-06 )
( 8.659834094e-08 4.172709467e-08 7.850546879e-10 2.013499589e-08 3.6881731e-10 2.822303315e-07 )
( 6.192241017e-06 2.593041245e-06 9.223580122e-08 1.217875365e-06 4.369803364e-08 1.79759827e-05 )
( 6.14808323e-06 2.567600404e-06 9.102866727e-08 1.202561748e-06 4.282961541e-08 1.78673381e-05 )
( 4.726385669e-06 2.053645403e-06 5.363931166e-08 9.492181334e-07 2.614868144e-08 1.363535648e-05 )
( 3.258203833e-06 1.45834656e-06 3.053913744e-08 6.759518101e-07 1.509943992e-08 9.51722177e-06 )
( 1.896546337e-06 8.720966207e-07 1.628277779e-08 4.084396608e-07 7.952350778e-09 5.69978647e-06 )
( 9.127016369e-07 4.288691571e-07 7.764258569e-09 2.032658841e-07 3.728095166e-09 2.834266752e-06 )
( 3.343822641e-07 1.59112858e-07 2.823742573e-09 7.601212815e-08 1.347457923e-09 1.074649845e-06 )
( 8.301533683e-08 3.989618591e-08 6.927085572e-10 1.920722248e-08 3.203376731e-10 2.753974968e-07 )
( 7.222048225e-06 2.865614078e-06 1.35648861e-07 1.398174163e-06 6.159151411e-08 2.135501381e-05 )
( 7.185307368e-06 2.841683227e-06 1.353114243e-07 1.380951289e-06 6.084830773e-08 2.12318846e-05 )
( 6.106008186e-06 2.54334941e-06 8.860138223e-08 1.185563178e-06 4.125200093e-08 1.771184543e-05 )
( 4.769548013e-06 2.061057103e-06 5.305344786e-08 9.500977285e-07 2.555393408e-08 1.377228e-05 )
( 3.220641474e-06 1.438141908e-06 2.922990738e-08 6.652546745e-07 1.423012108e-08 9.462050002e-06 )
( 1.865577246e-06 8.555171007e-07 1.544780126e-08 3.995720022e-07 7.429269644e-09 5.651724223e-06 )
( 9.116513411e-07 4.256232273e-07 7.243158517e-09 2.005666317e-07 3.448838992e-09 2.866369186e-06 )
( 3.228572325e-07 1.531128646e-07 2.614427341e-09 7.291311732e-08 1.233424141e-09 1.056705059e-06 )
( 7.953176606e-08 3.810353633e-08 5.935184011e-10 1.828578888e-08 2.744407757e-10 2.706083535e-07 )
( 7.91122693e-06 2.917401844e-06 1.764115609e-07 1.540028734e-06 7.794866264e-08 2.369126742e-05 )
( 7.885895684e-06 2.897819286e-06 1.773857008e-07 1.521621016e-06 7.748844411e-08 2.356694495e-05 )
( 7.150360034e-06 2.823417617e-06 1.329085393e-07 1.363867227e-06 5.922823831e-08 2.106274769e-05 )
( 6.161656074e-06 2.549175861e-06 8.881889357e-08 1.186643885e-06 4.095643646e-08 1.785457789e-05 )
( 4.727268333e-06 2.03610125e-06 5.143636272e-08 9.358818716e-07 2.442134495e-08 1.369766414e-05 )
( 3.172652214e-06 1.411349672e-06 2.79309571e-08 6.501688858e-07 1.33002942e-08 9.36757624e-06 )
( 1.866188768e-06 8.496853638e-07 1.456287624e-08 3.943673619e-07 6.861482937e-09 5.700692782e-06 )
( 8.83741393e-07 4.108315181e-07 6.744170111e-09 1.928134594e-07 3.143946214e-09 2.82498786e-06 )
( 3.098112131e-07 1.462772161e-07 2.269005206e-09 6.934681807e-08 1.07190723e-09 1.040129973e-06 )
( 7.595045304e-08 3.58246588e-08 5.216181931e-10 1.693539886e-08 2.435099067e-10 2.741129776e-07 )
( 8.381633961e-06 2.787214498e-06 2.024433314e-07 1.690110139e-06 8.917444916e-08 2.500131814e-05 )
( 8.359251296e-06 2.794813099e-06 2.055875257e-07 1.658620704e-06 8.852354227e-08 2.487823076e-05 )
( 7.860260666e-06 2.887011078e-06 1.759192116e-07 1.505820592e-06 7.616711883e-08 2.341246e-05 )
( 7.211470347e-06 2.822669103e-06 1.346691505e-07 1.364778427e-06 5.949040016e-08 2.118417797e-05 )
( 6.122033483e-06 2.522703653e-06 8.724424561e-08 1.17047648e-06 3.975295471e-08 1.776296267e-05 )
( 4.670977887e-06 2.003589088e-06 4.947239418e-08 9.164807011e-07 2.299286272e-08 1.355194672e-05 )
( 3.181731017e-06 1.405085413e-06 2.67933622e-08 6.435788578e-07 1.240921765e-08 9.431542821e-06 )
( 1.818029091e-06 8.237844895e-07 1.35374103e-08 3.805948268e-07 6.193633606e-09 5.624912774e-06 )
( 8.53145707e-07 3.940257898e-07 5.992926155e-09 1.837381802e-07 2.778592245e-09 2.77760887e-06 )
( 3.002436415e-07 1.391895523e-07 1.946305339e-09 6.482978421e-08 9.058988004e-10 1.040717848e-06 )
( 7.26352809e-08 3.304607787e-08 4.477076487e-10 1.506765734e-08 1.891492102e-10 2.620553801e-07 )
( 8.772585716e-06 2.492343583e-06 2.050321086e-07 1.898592586e-06 9.421319902e-08 2.542904258e-05 )
( 8.63873538e-06 2.619580755e-06 2.133261461e-07 1.781450351e-06 9.250778987e-08 2.521854003e-05 )
( 8.350981261e-06 2.78790958e-06 2.057987558e-07 1.647228601e-06 8.794998507e-08 2.476945701e-05 )
( 7.923751582e-06 2.877745146e-06 1.791126181e-07 1.506749868e-06 7.680184666e-08 2.348287671e-05 )
( 7.183215075e-06 2.79783012e-06 1.338061253e-07 1.347257353e-06 5.847505946e-08 2.108231638e-05 )
( 6.069426945e-06 2.491822443e-06 8.469057633e-08 1.149291165e-06 3.797490677e-08 1.758227882e-05 )
( 4.694390555e-06 1.999113238e-06 4.883393956e-08 9.100538136e-07 2.219841022e-08 1.362309285e-05 )
( 3.117922233e-06 1.370298719e-06 2.5428184e-08 6.245899158e-07 1.147551654e-08 9.311091162e-06 )
( 1.768395919e-06 7.953404975e-07 1.243154912e-08 3.647238316e-07 5.615687915e-09 5.524636435e-06 )
( 8.383917702e-07 3.807276698e-07 5.327703612e-09 1.746919338e-07 2.414537681e-09 2.770766514e-06 )
( 2.922613476e-07 1.321979255e-07 1.676779271e-09 6.00818808e-08 7.42644779e-10 1.008613253e-06 )
( 7.536981173e-08 3.408259985e-08 4.050731139e-10 1.544356465e-08 1.672738614e-10 2.603036933e-07 )
( 8.965681445e-06 2.304860573e-06 2.032789297e-07 1.992302259e-06 9.561630065e-08 2.526487151e-05 )
( 9.07112917e-06 2.160532631e-06 1.887355694e-07 2.116426685e-06 9.60722133e-08 2.529907215e-05 )
( 8.83933717e-06 2.466307933e-06 2.141622275e-07 1.869359949e-06 9.37055944e-08 2.518180736e-05 )
( 8.418918696e-06 2.752618002e-06 2.091954912e-07 1.658065003e-06 8.878085112e-08 2.47673961e-05 )
( 7.907199688e-06 2.855106914e-06 1.795360447e-07 1.487107284e-06 7.61814789e-08 2.337754813e-05 )
( 7.140157777e-06 2.774356062e-06 1.31205141e-07 1.326440724e-06 5.677918224e-08 2.089638838e-05 )
( 6.106806268e-06 2.488212886e-06 8.489184466e-08 1.144168778e-06 3.746415445e-08 1.765795787e-05 )
( 4.626135706e-06 1.960593409e-06 4.69905892e-08 8.882294651e-07 2.084745354e-08 1.34686743e-05 )
( 3.05600679e-06 1.333248861e-06 2.341676009e-08 6.031931434e-07 1.028168928e-08 9.15101009e-06 )
( 1.759843599e-06 7.800940693e-07 1.121710724e-08 3.52944511e-07 4.928838671e-09 5.511753898e-06 )
( 8.245461913e-07 3.680178224e-07 4.539801868e-09 1.659147557e-07 1.980493991e-09 2.702635356e-06 )
( 2.997686863e-07 1.345165117e-07 1.448951736e-09 6.061047486e-08 6.328875202e-10 1.002932549e-06 )
( 7.941046931e-08 3.571399176e-08 2.829690648e-10 1.609070388e-08 1.135534791e-10 2.694554269e-07 )
( 9.18042042e-06 2.094266392e-06 1.963063454e-07 2.101761083e-06 9.748581675e-08 2.49622135e-05 )
( 9.337347365e-06 1.870017286e-06 1.7270321e-07 2.281180286e-06 9.815902047e-08 2.481536285e-05 )
( 9.387582395e-06 1.767295771e-06 1.548408193e-07 2.387182349e-06 1.002736312e-07 2.483025128e-05 )
( 9.057166608e-06 2.268461003e-06 2.121437319e-07 1.963579962e-06 9.453602701e-08 2.498877802e-05 )
( 8.400324987e-06 2.750915428e-06 2.114952906e-07 1.623375738e-06 8.828627074e-08 2.464987301e-05 )
( 7.876919881e-06 2.84028647e-06 1.778154228e-07 1.468031883e-06 7.487309972e-08 2.321571264e-05 )
( 7.18657293e-06 2.76737228e-06 1.325959857e-07 1.322160074e-06 5.676047365e-08 2.096049138e-05 )
( 6.042931091e-06 2.45074034e-06 8.298854226e-08 1.121139348e-06 3.597799747e-08 1.748581599e-05 )
( 4.561244623e-06 1.920869863e-06 4.455625202e-08 8.638091344e-07 1.916820835e-08 1.325880567e-05 )
( 3.066597628e-06 1.322000571e-06 2.233529095e-08 5.917768249e-07 9.516316624e-09 9.148197933e-06 )
( 1.741807068e-06 7.630805499e-07 9.877183516e-09 3.410839327e-07 4.221559546e-09 5.407328445e-06 )
( 8.392090649e-07 3.720952293e-07 3.910556767e-09 1.665805911e-07 1.698439056e-09 2.687690539e-06 )
( 3.122855503e-07 1.392172635e-07 1.127491323e-09 6.234691341e-08 4.920832075e-10 1.02490435e-06 )
( 7.979762984e-08 3.583220476e-08 2.166218177e-10 1.61221827e-08 8.365574206e-11 2.6426045e-07 )
( 9.367849088e-06 1.913355163e-06 1.883543348e-07 2.193505907e-06 9.840164239e-08 2.463970304e-05 )
( 9.595026313e-06 1.614599e-06 1.557730798e-07 2.429949973e-06 9.987677174e-08 2.433724148e-05 )
( 9.663894161e-06 1.475814543e-06 1.294376517e-07 2.574061e-06 1.019766387e-07 2.423739716e-05 )
( 9.70565543e-06 1.378429943e-06 1.090793162e-07 2.678749524e-06 1.026315175e-07 2.424011109e-05 )
( 9.228924682e-06 2.097370043e-06 2.080724073e-07 2.042639608e-06 9.512996257e-08 2.476818372e-05 )
( 8.699512364e-06 2.572223138e-06 2.204619278e-07 1.745784061e-06 9.196361361e-08 2.496287743e-05 )
( 8.390667972e-06 2.741170192e-06 2.110967898e-07 1.608708885e-06 8.755981185e-08 2.453877642e-05 )
( 7.929567801e-06 2.828237029e-06 1.794051627e-07 1.46379989e-06 7.472465313e-08 2.324480738e-05 )
( 7.137999091e-06 2.73515343e-06 1.301383179e-07 1.298787311e-06 5.48205179e-08 2.079231854e-05 )
( 5.987216355e-06 2.414966048e-06 7.963882354e-08 1.096023084e-06 3.361635237e-08 1.725854599e-05 )
( 4.596001872e-06 1.915450866e-06 4.353828231e-08 8.544985803e-07 1.818595941e-08 1.328979124e-05 )
( 3.045285666e-06 1.301612997e-06 2.016601997e-08 5.776462899e-07 8.457496925e-09 9.021747246e-06 )
( 1.759577799e-06 7.663506949e-07 8.62184546e-09 3.404682616e-07 3.672119719e-09 5.375575711e-06 )
( 8.68254574e-07 3.823902546e-07 3.163429296e-09 1.701304626e-07 1.37126932e-09 2.735836915e-06 )
( 3.149451118e-07 1.402540875e-07 8.263317253e-10 6.272803432e-08 3.582283081e-10 1.014751319e-06 )
( 8.093738302e-08 3.644563407e-08 1.490450402e-10 1.643889824e-08 5.418835866e-11 2.628412119e-07 )
( 9.487428542e-06 1.80259201e-06 1.832682273e-07 2.241775292e-06 9.800841383e-08 2.444157508e-05 )
( 9.751188372e-06 1.466152298e-06 1.467625452e-07 2.513379059e-06 1.014367257e-07 2.402460996e-05 )
( 1.007481023e-05 1.052660878e-06 8.229193327e-08 2.870285243e-06 1.033820922e-07 2.340876927e-05 )
( 9.930771739e-06 1.149407922e-06 8.680510177e-08 2.829569439e-06 1.040450854e-07 2.374915675e-05 )
( 1.024924495e-05 7.086297273e-07 6.489374371e-09 3.211801868e-06 1.044305478e-07 2.307593604e-05 )
( 9.433945706e-06 1.903117436e-06 2.006289463e-07 2.128948381e-06 9.514058519e-08 2.443154153e-05 )
( 8.894032362e-06 2.422900252e-06 2.218274062e-07 1.822900913e-06 9.333334816e-08 2.491500527e-05 )
( 8.452810107e-06 2.706882697e-06 2.137887236e-07 1.613682457e-06 8.818727792e-08 2.451661749e-05 )
( 7.897756404e-06 2.803238203e-06 1.786186345e-07 1.439986818e-06 7.352481646e-08 2.30930309e-05 )
( 7.094412013e-06 2.708089596e-06 1.274772075e-07 1.274818032e-06 5.285696147e-08 2.057537131e-05 )
( 6.039731943e-06 2.411746664e-06 8.004592189e-08 1.088692557e-06 3.296525364e-08 1.732100463e-05 )
( 4.570276815e-06 1.891382681e-06 4.139247523e-08 8.379163319e-07 1.699156371e-08 1.315965346e-05 )
( 3.056876039e-06 1.298908387e-06 1.837879537e-08 5.72921067e-07 7.647020794e-09 8.963785149e-06 )
( 1.809621722e-06 7.827685522e-07 7.349278519e-09 3.456276261e-07 3.108721947e-09 5.459656222e-06 )
( 8.736509471e-07 3.843414902e-07 2.418724998e-09 1.707817887e-07 1.047613662e-09 2.716921699e-06 )
( 3.185054709e-07 1.420330591e-07 5.529564584e-10 6.359635307e-08 2.423777845e-10 1.011610493e-06 )
( 8.406132679e-08 3.771670976e-08 1.772090114e-11 1.695652507e-08 -3.326134507e-12 2.713338461e-07 )
( 9.752330698e-06 1.547680313e-06 1.599204325e-07 2.39121141e-06 9.902122144e-08 2.391524868e-05 )
( 9.916571798e-06 1.322160642e-06 1.304546515e-07 2.608488785e-06 1.015847175e-07 2.368307469e-05 )
( 1.074782995e-05 1.789652373e-07 -6.778682149e-08 3.607669896e-06 1.075576392e-07 2.197072899e-05 )
( 1.048945887e-05 6.649003126e-07 3.362753986e-08 3.142092282e-06 1.041999766e-07 2.254598439e-05 )
( 1.090085061e-05 -2.210684613e-07 -1.615684795e-07 4.024427653e-06 1.041954221e-07 2.146588304e-05 )
( 9.785627299e-06 1.563119099e-06 1.782443206e-07 2.336046464e-06 9.861110328e-08 2.382201455e-05 )
( 9.106322068e-06 2.239409696e-06 2.212754424e-07 1.910394758e-06 9.450786109e-08 2.473736458e-05 )
( 8.425073247e-06 2.711476782e-06 2.14686267e-07 1.577930902e-06 8.687079855e-08 2.437949115e-05 )
( 7.868342436e-06 2.786521463e-06 1.76250353e-07 1.418755005e-06 7.172047845e-08 2.290986413e-05 )
( 7.159766483e-06 2.702050097e-06 1.292949037e-07 1.268933715e-06 5.260504565e-08 2.064384171e-05 )
( 6.013860457e-06 2.385108701e-06 7.806213631e-08 1.069878977e-06 3.160429074e-08 1.719537249e-05 )
( 4.567994438e-06 1.878980584e-06 3.895048906e-08 8.272327818e-07 1.584200326e-08 1.306595732e-05 )
( 3.124716841e-06 1.318384534e-06 1.694672846e-08 5.783855954e-07 7.00323266e-09 9.085311831e-06 )
( 1.813726612e-06 7.833405675e-07 5.94765881e-09 3.453775435e-07 2.533415477e-09 5.430499186e-06 )
( 8.789797903e-07 3.866063594e-07 1.6126529e-09 1.717226752e-07 7.121007672e-10 2.707787189e-06 )
( 3.272776894e-07 1.45343833e-07 1.341342037e-10 6.484111736e-08 5.961922622e-11 1.032054797e-06 )
( 8.331272738e-08 3.73294462e-08 2.865379982e-11 1.676025896e-08 2.799622513e-13 2.657127141e-07 )
( 1.023325422e-05 1.072705004e-06 1.130424749e-07 2.721919827e-06 1.016518141e-07 2.301945642e-05 )
( 1.007510582e-05 1.184347411e-06 1.159054506e-07 2.681518481e-06 1.012936366e-07 2.334954843e-05 )
( 1.116418753e-05 -2.622136606e-07 -1.305185577e-07 3.954889507e-06 1.088491715e-07 2.102116014e-05 )
( 1.124470145e-05 -5.997783887e-07 -2.108908035e-07 4.303094101e-06 1.052740828e-07 2.0665997e-05 )
( 1.103832892e-05 7.939242153e-08 -4.205339366e-08 3.574554285e-06 1.046740223e-07 2.136024159e-05 )
( 9.334283277e-06 2.035438001e-06 2.153684306e-07 2.012011691e-06 9.584912419e-08 2.443272933e-05 )
( 9.947902981e-06 1.41724172e-06 1.690512335e-07 2.417515589e-06 1.001479717e-07 2.351733201e-05 )
( 8.736696145e-06 2.544065865e-06 2.272549295e-07 1.698717256e-06 9.17255818e-08 2.469962965e-05 )
( 8.416007404e-06 2.702112852e-06 2.147098144e-07 1.562724037e-06 8.629405102e-08 2.425716593e-05 )
( 7.938292583e-06 2.775019766e-06 1.80067488e-07 1.414624194e-06 7.224903698e-08 2.294877049e-05 )
( 7.138274214e-06 2.675514452e-06 1.283491855e-07 1.248813419e-06 5.126148395e-08 2.052316631e-05 )
( 5.998612778e-06 2.365708951e-06 7.572423755e-08 1.053899155e-06 3.022542572e-08 1.706481089e-05 )
( 4.645632998e-06 1.896248705e-06 3.817810068e-08 8.309258419e-07 1.543040007e-08 1.321075524e-05 )
( 3.121270311e-06 1.313707799e-06 1.493466684e-08 5.749342336e-07 6.219130988e-09 9.041752492e-06 )
( 1.815449991e-06 7.826540127e-07 4.650707375e-09 3.443796004e-07 1.988677223e-09 5.405107913e-06 )
( 8.992283824e-07 3.93664493e-07 8.723625711e-10 1.741487239e-07 3.730066256e-10 2.752765113e-06 )
( 3.262609596e-07 1.447570526e-07 6.332760705e-11 6.45141327e-08 2.089381966e-11 1.020638365e-06 )
( 8.349968539e-08 3.750536237e-08 -7.129725282e-11 1.687891427e-08 -4.427497605e-11 2.639383183e-07 )
( 1.070039707e-05 6.404146689e-07 6.676932429e-08 3.017819836e-06 1.05214184e-07 2.21189639e-05 )
( 1.150072148e-05 -8.49564799e-07 -2.435821216e-07 4.485262252e-06 1.082187069e-07 2.007914554e-05 )
( 1.163552588e-05 -8.33495335e-07 -2.169213786e-07 4.402309969e-06 1.065785895e-07 1.989586963e-05 )
( 1.172929569e-05 -1.439654852e-06 -3.688857078e-07 5.07398272e-06 9.733290085e-08 1.925225843e-05 )
( 1.135973162e-05 -2.380295427e-07 -8.061000756e-08 3.796032843e-06 1.063070059e-07 2.071635754e-05 )
( 8.959068509e-06 2.396892796e-06 2.294129899e-07 1.781460355e-06 9.245187016e-08 2.464924e-05 )
( 9.531018804e-06 1.861387773e-06 2.086240443e-07 2.098331379e-06 9.648371702e-08 2.411728019e-05 )
( 1.012087523e-05 1.278227728e-06 1.531527687e-07 2.508505077e-06 1.015218061e-07 2.319027044e-05 )
( 8.493163477e-06 2.666884029e-06 2.179058072e-07 1.568926223e-06 8.661642426e-08 2.423663318e-05 )
( 7.929448657e-06 2.751351985e-06 1.803213081e-07 1.393141588e-06 7.121587942e-08 2.28316494e-05 )
( 7.118646863e-06 2.656158586e-06 1.260955287e-07 1.230254384e-06 4.96909891e-08 2.037001104e-05 )
( 6.076947557e-06 2.375421445e-06 7.646713129e-08 1.05512288e-06 3.031038531e-08 1.720497494e-05 )
( 4.628733222e-06 1.882720653e-06 3.574662344e-08 8.225631518e-07 1.449804898e-08 1.314594465e-05 )
( 3.111384331e-06 1.305510523e-06 1.275531591e-08 5.694772653e-07 5.329620301e-09 8.986429748e-06 )
( 1.850877425e-06 7.93894344e-07 3.350021816e-09 3.478769486e-07 1.394737104e-09 5.485573183e-06 )
( 8.961919775e-07 3.920350196e-07 3.051038033e-10 1.732683899e-07 1.275735906e-10 2.733184601e-06 )
( 3.261836525e-07 1.449191416e-07 -2.288273876e-10 6.466462565e-08 -1.071586847e-10 1.01626415e-06 )
( 8.562854248e-08 3.831456752e-08 -1.661502047e-10 1.717891962e-08 -8.71903244e-11 2.723124339e-07 )
( 1.037875427e-05 1.062481715e-06 1.323755328e-07 2.646448593e-06 1.03031887e-07 2.272064194e-05 )
( 1.122566937e-05 1.439591983e-07 8.246503036e-09 3.376348332e-06 1.085291501e-07 2.111975664e-05 )
( 1.221442926e-05 -1.40625707e-06 -2.87703017e-07 4.82233645e-06 1.020683769e-07 1.875326052e-05 )
( 1.220146078e-05 -1.950513479e-06 -4.315124045e-07 5.4711536e-06 8.335862134e-08 1.825346226e-05 )
( 1.224543394e-05 -2.431725534e-06 -5.28695864e-07 6.099691745e-06 7.022171644e-08 1.778385922e-05 )
( 1.173329838e-05 -6.072195902e-07 -1.281424318e-07 4.057355454e-06 1.087813644e-07 1.998064181e-05 )
( 9.198265616e-06 2.206404815e-06 2.29181552e-07 1.871917448e-06 9.326386419e-08 2.445197242e-05 )
( 9.746365322e-06 1.664454999e-06 1.946755503e-07 2.214622782e-06 9.786812427e-08 2.377988676e-05 )
( 8.483316378e-06 2.664591648e-06 2.196423594e-07 1.532866918e-06 8.577209343e-08 2.411136848e-05 )
( 7.91113689e-06 2.736602028e-06 1.785994641e-07 1.375002057e-06 6.962724086e-08 2.268378557e-05 )
( 7.194212685e-06 2.65619019e-06 1.287107949e-07 1.229622967e-06 5.030210914e-08 2.04758926e-05 )
( 6.050150205e-06 2.354432127e-06 7.421840564e-08 1.041783321e-06 2.944638489e-08 1.711408731e-05 )
( 4.605539743e-06 1.865729701e-06 3.26598304e-08 8.1130122e-07 1.327082533e-08 1.304903344e-05 )
( 3.162514986e-06 1.319313924e-06 1.144555295e-08 5.731482133e-07 4.701024015e-09 9.10509425e-06 )
( 1.842028951e-06 7.890785128e-07 2.244521458e-09 3.453342856e-07 9.350134e-10 5.458286523e-06 )
( 8.925987913e-07 3.903316212e-07 -3.446952168e-10 1.724602612e-07 -1.592317805e-10 2.720190423e-06 )
( 3.311409387e-07 1.46474548e-07 -5.22374588e-10 6.509644379e-08 -2.427679446e-10 1.035316359e-06 )
( 8.376622418e-08 3.743016208e-08 -2.128314053e-10 1.675761929e-08 -1.070722955e-10 2.662182226e-07 )
( 1.05278541e-05 9.781786048e-07 1.331344208e-07 2.667074568e-06 1.02339456e-07 2.241079346e-05 )
( 1.007103037e-05 1.382447522e-06 1.704513721e-07 2.390259624e-06 1.000150291e-07 2.319477971e-05 )
( 1.165365939e-05 -2.776701251e-07 -4.838162937e-08 3.692360679e-06 1.093324258e-07 2.027870869e-05 )
( 1.262706883e-05 -2.362897249e-06 -4.608691597e-07 5.825388143e-06 7.501087396e-08 1.744775e-05 )
( 1.267712287e-05 -1.929838845e-06 -3.489408869e-07 5.247505669e-06 9.231884945e-08 1.780008824e-05 )
( 1.199344297e-05 -8.47019578e-07 -1.582049123e-07 4.217219612e-06 1.105259457e-07 1.945763142e-05 )
( 1.265189258e-05 -2.784049229e-06 -5.3144106e-07 6.367299648e-06 6.150909826e-08 1.713718666e-05 )
( 8.820111361e-06 2.497742116e-06 2.334904394e-07 1.656458039e-06 9.059826311e-08 2.44232524e-05 )
( 9.384805708e-06 2.039270385e-06 2.25927792e-07 1.948838189e-06 9.357823672e-08 2.42286369e-05 )
( 8.481229997e-06 2.654102218e-06 2.192328168e-07 1.518587851e-06 8.480717639e-08 2.400268932e-05 )
( 7.985979209e-06 2.728078243e-06 1.819249604e-07 1.373230816e-06 7.032235771e-08 2.273281279e-05 )
( 7.167383046e-06 2.631834832e-06 1.267463006e-07 1.212530833e-06 4.948710952e-08 2.03628806e-05 )
( 6.01930833e-06 2.332149279e-06 7.013401415e-08 1.025920938e-06 2.792786979e-08 1.697618973e-05 )
( 4.667924259e-06 1.878211151e-06 3.180152675e-08 8.138024441e-07 1.293982432e-08 1.319369039e-05 )
( 3.143322601e-06 1.3083976e-06 9.690731773e-09 5.671874987e-07 4.055398239e-09 9.068496183e-06 )
( 1.827832875e-06 7.814857668e-07 8.278170927e-10 3.413506136e-07 3.38319317e-10 5.425230484e-06 )
( 9.026556995e-07 3.927708008e-07 -1.05828446e-09 1.727759553e-07 -4.846498203e-10 2.759403742e-06 )
( 3.257630681e-07 1.439731534e-07 -7.647460998e-10 6.391863394e-08 -3.544679827e-10 1.021425874e-06 )
( 8.291378606e-08 3.711724617e-08 -3.002405546e-10 1.664250071e-08 -1.45308196e-10 2.637112857e-07 )
( 1.096436336e-05 6.188153634e-07 9.837815185e-08 2.907494263e-06 1.026945995e-07 2.163373938e-05 )
( 9.988201782e-06 1.512503218e-06 1.977520157e-07 2.239240075e-06 9.683384405e-08 2.3275903e-05 )
( 1.016196984e-05 1.368598646e-06 1.907010017e-07 2.315884103e-06 9.847289562e-08 2.296934326e-05 )
( 9.6888607e-06 1.763394039e-06 2.10977035e-07 2.09946711e-06 9.535363432e-08 2.375418262e-05 )
( 1.211320341e-05 -8.131098639e-07 -1.237125531e-07 4.107867426e-06 1.044747151e-07 1.931928637e-05 )
( 1.306352715e-05 -2.872483492e-06 -4.605381889e-07 6.301213489e-06 7.00539502e-08 1.655929918e-05 )
( 1.290819273e-05 -2.976663609e-06 -5.232590183e-07 6.507314993e-06 5.637978262e-08 1.667521246e-05 )
( 1.298860479e-05 -2.234951808e-06 -3.692926214e-07 5.476927072e-06 8.218598424e-08 1.727406925e-05 )
( 9.039186807e-06 2.354044454e-06 2.37105354e-07 1.734480747e-06 9.21515948e-08 2.437139483e-05 )
( 8.560015885e-06 2.621064823e-06 2.227536697e-07 1.524560957e-06 8.534143348e-08 2.398492688e-05 )
( 7.968071259e-06 2.705741281e-06 1.816177928e-07 1.352861773e-06 6.960128474e-08 2.260909969e-05 )
( 7.137958619e-06 2.611661557e-06 1.23381227e-07 1.194655511e-06 4.798939557e-08 2.020125794e-05 )
( 6.089908311e-06 2.339778803e-06 7.112549127e-08 1.026827249e-06 2.83408319e-08 1.711954428e-05 )
( 4.639059171e-06 1.859881422e-06 3.019819772e-08 8.034371604e-07 1.232998148e-08 1.314089877e-05 )
( 3.112765398e-06 1.291113676e-06 7.477949815e-09 5.57757005e-07 3.117632152e-09 8.999362763e-06 )
( 1.844278813e-06 7.839141745e-07 -2.798307142e-10 3.407747613e-07 -1.720337622e-10 5.48871094e-06 )
( 8.881832514e-07 3.85968093e-07 -1.615287459e-09 1.695318304e-07 -7.44678208e-10 2.729874041e-06 )
( 3.21722041e-07 1.422553453e-07 -1.015022622e-09 6.317316803e-08 -4.600824721e-10 1.01405908e-06 )
( 8.368491677e-08 3.72857869e-08 -3.929646053e-10 1.664465721e-08 -1.8579073e-10 2.710157219e-07 )
( 1.1534019e-05 7.195551177e-08 3.742500354e-08 3.301000334e-06 1.025210494e-07 2.058420068e-05 )
( 1.059202077e-05 1.025452889e-06 1.571219173e-07 2.523269814e-06 1.004892525e-07 2.222158219e-05 )
( 1.033774606e-05 1.234842898e-06 1.768492268e-07 2.399540563e-06 9.906726461e-08 2.265617877e-05 )
( 9.521390893e-06 1.970101039e-06 2.313670677e-07 1.923302989e-06 9.469549411e-08 2.38724806e-05 )
( 9.734340892e-06 1.792732974e-06 2.250232853e-07 2.008608362e-06 9.558642944e-08 2.354308162e-05 )
( 9.271824638e-06 2.173047733e-06 2.377198456e-07 1.822316676e-06 9.338830864e-08 2.418545409e-05 )
( 1.185535984e-05 -2.18134403e-07 9.821046199e-09 3.497862963e-06 1.028643624e-07 2.002085421e-05 )
( 1.26202367e-05 -1.311110736e-06 -1.71557744e-07 4.461810477e-06 9.922230504e-08 1.837284981e-05 )
( 1.354533742e-05 -3.288346761e-06 -4.313028796e-07 6.670439234e-06 8.807755592e-08 1.577747571e-05 )
( 1.332703232e-05 -2.546786391e-06 -3.750196811e-07 5.738580967e-06 8.269503837e-08 1.673092265e-05 )
( 8.540732779e-06 2.624154376e-06 2.235137231e-07 1.491113721e-06 8.440547106e-08 2.385754487e-05 )
( 7.943624041e-06 2.690698693e-06 1.782269266e-07 1.335612978e-06 6.814432396e-08 2.245382711e-05 )
( 7.213775916e-06 2.611240689e-06 1.258126758e-07 1.194353331e-06 4.893052363e-08 2.031322765e-05 )
( 6.0567736e-06 2.316100563e-06 6.983583489e-08 1.012572739e-06 2.785986553e-08 1.704481838e-05 )
( 4.593160156e-06 1.833618967e-06 2.720845771e-08 7.8816322e-07 1.108769609e-08 1.302453529e-05 )
( 3.136116902e-06 1.292340471e-06 6.14764506e-09 5.556744895e-07 2.503180108e-09 9.084622434e-06 )
( 1.814057669e-06 7.695769568e-07 -1.434565577e-09 3.33879342e-07 -6.679664044e-10 5.437571872e-06 )
( 8.748873483e-07 3.797070462e-07 -2.341836947e-09 1.665861191e-07 -1.031117081e-09 2.709510909e-06 )
( 3.220384315e-07 1.41616141e-07 -1.338035016e-09 6.257637608e-08 -5.991851459e-10 1.030082217e-06 )
( 8.039603472e-08 3.57054688e-08 -3.995173359e-10 1.58878386e-08 -1.890571311e-10 2.639116019e-07 )
( 1.073290605e-05 9.446083595e-07 1.590508845e-07 2.53371627e-06 9.995151373e-08 2.194795525e-05 )
( 1.027348208e-05 1.328926601e-06 1.891965127e-07 2.27411374e-06 9.913282639e-08 2.26729444e-05 )
( 9.957856491e-06 1.599556526e-06 2.126249825e-07 2.116735004e-06 9.742947782e-08 2.320868771e-05 )
( 9.13227268e-06 2.322315822e-06 2.434842656e-07 1.697564699e-06 9.11159006e-08 2.409881381e-05 )
( 9.391531421e-06 2.135093609e-06 2.450954639e-07 1.7849203e-06 9.255906264e-08 2.388727262e-05 )
( 8.8869092e-06 2.46592117e-06 2.396071181e-07 1.613630161e-06 8.989277944e-08 2.41603866e-05 )
( 1.221251841e-05 -5.473912097e-07 -1.972928487e-08 3.729437822e-06 1.026987704e-07 1.939080175e-05 )
( 1.115233135e-05 6.090510851e-07 1.325707331e-07 2.751931788e-06 1.004346402e-07 2.123380909e-05 )
( 1.245222393e-05 -7.494402325e-07 -4.018182764e-08 3.883687441e-06 1.03413015e-07 1.900204916e-05 )
( 1.295849961e-05 -1.601556733e-06 -1.934963194e-07 4.67987411e-06 9.305640702e-08 1.780146522e-05 )
( 1.38513069e-05 -3.513330739e-06 -3.975487743e-07 6.904036127e-06 1.216380667e-07 1.52850007e-05 )
( 1.354523647e-05 -2.722056706e-06 -3.68400805e-07 5.885473911e-06 8.52279527e-08 1.631551095e-05 )
( 8.534802873e-06 2.614387085e-06 2.226972242e-07 1.478187187e-06 8.345367775e-08 2.37432796e-05 )
( 8.022887414e-06 2.681369324e-06 1.829960183e-07 1.334657554e-06 6.926979523e-08 2.250715261e-05 )
( 7.187718893e-06 2.585932179e-06 1.257223232e-07 1.177149443e-06 4.870594239e-08 2.021768523e-05 )
( 6.00749263e-06 2.286682047e-06 6.656634355e-08 9.93356025e-07 2.640771513e-08 1.688654629e-05 )
( 4.625106612e-06 1.832524504e-06 2.627926143e-08 7.844030279e-07 1.064384758e-08 1.31191664e-05 )
( 3.086590823e-06 1.267973971e-06 4.34447589e-09 5.436579045e-07 1.746900735e-09 9.005106222e-06 )
( 1.783794801e-06 7.541456171e-07 -2.64911737e-09 3.261162647e-07 -1.167886232e-09 5.389852504e-06 )
( 8.74461989e-07 3.768373631e-07 -2.889801065e-09 1.642777505e-07 -1.284982454e-09 2.742881406e-06 )
( 3.116248877e-07 1.365686728e-07 -1.406633587e-09 6.01499579e-08 -6.39788611e-10 1.013342739e-06 )
( 7.749078179e-08 3.439029328e-08 -4.794680208e-10 1.529382132e-08 -2.207607708e-10 2.603675853e-07 )
( 1.019311276e-05 1.463707576e-06 2.178403093e-07 2.12547252e-06 9.695315839e-08 2.275356564e-05 )
( 1.036827416e-05 1.321386435e-06 2.11576392e-07 2.203576059e-06 9.791617828e-08 2.245944597e-05 )
( 9.898450116e-06 1.70196131e-06 2.278621736e-07 1.997949994e-06 9.559326486e-08 2.319703526e-05 )
( 9.587894056e-06 1.969015784e-06 2.417401959e-07 1.858443511e-06 9.363535014e-08 2.365534965e-05 )
( 8.620570952e-06 2.579894044e-06 2.260101439e-07 1.486837164e-06 8.416187569e-08 2.372449853e-05 )
( 8.973175682e-06 2.41487669e-06 2.454598302e-07 1.570724748e-06 8.945447405e-08 2.387489985e-05 )