/*--------------------------------*- C++ -*----------------------------------*\
  =========                 |
  \\      /  F ield         | OpenFOAM: The Open Source CFD Toolbox
   \\    /   O peration     | Website:  https://openfoam.org
    \\  /    A nd           | Version:  8
     \\/     M anipulation  |
\*---------------------------------------------------------------------------*/






FoamFile
{
    version     2.0;
    format      ascii;
    class       volVectorField;
    location    "0";
    object      UDDES;
}
// * * * * * * * * * * * * * * * * * * * * * * * * * * * * * * * * * * * * * //

dimensions      [0 1 -1 0 0 0 0];


internalField   nonuniform List<vector> 
25404
(
( 0.0007801688043 0.0003806890454 -3.023947556e-06 )
( 0.0007682043361 0.0003744136193 -2.981530088e-06 )
( 0.001644535572 0.0008005800773 -6.533405667e-06 )
( 0.001621952048 0.0007887545507 -6.50504262e-06 )
( 0.0007602544501 0.0003714856866 -2.951223451e-06 )
( 0.002864849987 0.001390166231 -1.170117775e-05 )
( 0.002826524433 0.001370010315 -1.166008133e-05 )
( 0.001604524092 0.0007819822058 -6.437166121e-06 )
( 0.00076026842 0.0003706734278 -3.042487151e-06 )
( 0.00418430008 0.002021366498 -1.771824827e-05 )
( 0.004128960427 0.001992360689 -1.769813753e-05 )
( 0.002793930005 0.001356495894 -1.158567738e-05 )
( 0.001601081807 0.0007781184395 -6.610885066e-06 )
( 0.0007457602769 0.0003630151041 -3.037968781e-06 )
( 0.005547625013 0.002664146712 -2.446134749e-05 )
( 0.005474939011 0.002625825349 -2.444879647e-05 )
( 0.00407787133 0.00196909206 -1.757589052e-05 )
( 0.002786500845 0.001348086516 -1.183599488e-05 )
( 0.001573738875 0.0007635355578 -6.565006515e-06 )
( 0.0007342141471 0.0003580673365 -2.97995166e-06 )
( 0.006871777121 0.003274212591 -3.169478441e-05 )
( 0.006783860736 0.003226866247 -3.160144843e-05 )
( 0.005404343363 0.002590505639 -2.428275911e-05 )
( 0.004066877533 0.001955509186 -1.793699812e-05 )
( 0.002741445322 0.001323606586 -1.181665357e-05 )
( 0.00154908828 0.0007527051494 -6.44246893e-06 )
( 0.0007295137038 0.0003546787193 -3.062031965e-06 )
( 0.008061414585 0.003802272957 -3.946217839e-05 )
( 0.007963169366 0.003747494426 -3.928868682e-05 )
( 0.006696624216 0.003179929219 -3.141074558e-05 )
( 0.005391441286 0.002572371392 -2.472047345e-05 )
( 0.004004599527 0.001921114046 -1.791865543e-05 )
( 0.002697496908 0.001303256839 -1.167062692e-05 )
( 0.001535963733 0.0007434349973 -6.604283953e-06 )
( 0.0007095495239 0.0003441269801 -3.06656375e-06 )
( 0.009049538523 0.004214311019 -4.867078678e-05 )
( 0.008946835995 0.004154743627 -4.836389417e-05 )
( 0.007865539752 0.003692595521 -3.895593181e-05 )
( 0.00668360386 0.003158319276 -3.194280362e-05 )
( 0.005314027891 0.002528632293 -2.474454959e-05 )
( 0.003939628601 0.001888716011 -1.779331978e-05 )
( 0.002674287418 0.001285484061 -1.195342065e-05 )
( 0.00149714516 0.0007222829736 -6.610730907e-06 )
( 0.00068879436 0.0003332259948 -2.994635679e-06 )
( 0.009832326323 0.004506898113 -6.047926581e-05 )
( 0.009729539976 0.004444555379 -5.996957043e-05 )
( 0.008845750242 0.004097038414 -4.78170623e-05 )
( 0.007852855138 0.003668027464 -3.96695832e-05 )
( 0.006595044397 0.003106787102 -3.198508784e-05 )
( 0.005229417235 0.002483082004 -2.457897426e-05 )
( 0.003908376675 0.001862040837 -1.820596117e-05 )
( 0.002610542811 0.001249263878 -1.202485691e-05 )
( 0.001455469872 0.000700443692 -6.551934348e-06 )
( 0.0006688975845 0.0003185120586 -3.069891363e-06 )
( 0.01046748459 0.004707827233 -7.592329348e-05 )
( 0.0103356177 0.004637090489 -7.413668209e-05 )
( 0.009631028399 0.004389441572 -5.914899521e-05 )
( 0.008832428604 0.00406873133 -4.871758574e-05 )
( 0.0077584018 0.003610966029 -3.968521924e-05 )
( 0.006496103015 0.003050223459 -3.176194514e-05 )
( 0.005194673315 0.002449805615 -2.512988067e-05 )
( 0.003822786501 0.001811857219 -1.837642594e-05 )
( 0.002543931827 0.001212364761 -1.182388405e-05 )
( 0.001420821529 0.0006717507495 -6.648457656e-06 )
( 0.0006494709523 0.0002988121705 -3.024257467e-06 )
( 0.01106178295 0.004869292956 -9.528595547e-05 )
( 0.01069131866 0.004717142787 -8.630008961e-05 )
( 0.01026241854 0.004593202844 -7.346693019e-05 )
( 0.009614945389 0.004355798941 -6.022755042e-05 )
( 0.008736649528 0.004008585121 -4.86538047e-05 )
( 0.007652354427 0.003548097331 -3.931309766e-05 )
( 0.006462250836 0.003013660666 -3.220389044e-05 )
( 0.005092756823 0.002388790948 -2.519728878e-05 )
( 0.003735468956 0.001760929241 -1.806708315e-05 )
( 0.002497258829 0.001170580159 -1.201670148e-05 )
( 0.001387847355 0.0006383484579 -6.636898888e-06 )
( 0.0006514309207 0.0002967501932 -3.031045253e-06 )
( 0.01119762473 0.004848364741 -0.0001026307509 )
( 0.01150492206 0.004973278847 -0.0001107942517 )
( 0.01085456461 0.004714898765 -9.384963778e-05 )
( 0.01025353931 0.004554495681 -7.519753854e-05 )
( 0.009521387517 0.004294344224 -6.00172134e-05 )
( 0.008630297147 0.003944482189 -4.801384785e-05 )
( 0.007621502969 0.003510216251 -3.985079093e-05 )
( 0.006350826006 0.00294598029 -3.22802116e-05 )
( 0.004991177935 0.002327048685 -2.495737863e-05 )
( 0.00368810026 0.001712330151 -1.822245213e-05 )
( 0.002450053813 0.001122782705 -1.192959462e-05 )
( 0.001388672041 0.0006320067332 -6.588764336e-06 )
( 0.0006605852395 0.0002992508234 -3.112276772e-06 )
( 0.01131854951 0.004813588224 -0.0001092857201 )
( 0.01166089531 0.004931505304 -0.000118025855 )
( 0.01191526279 0.005056065507 -0.0001240017446 )
( 0.01101319119 0.004696483724 -0.0001015516318 )
( 0.01013642177 0.004486880265 -7.376534631e-05 )
( 0.009420408867 0.004233702086 -5.910939217e-05 )
( 0.008601769805 0.003904768499 -4.868311953e-05 )
( 0.007506678812 0.003439176595 -3.969015233e-05 )
( 0.006241444033 0.002877474762 -3.203913002e-05 )
( 0.004951515235 0.00227844296 -2.521439819e-05 )
( 0.003630431369 0.001657655812 -1.818990131e-05 )
( 0.002445792546 0.001112364233 -1.190155126e-05 )
( 0.00140251324 0.0006344409776 -6.74399962e-06 )
( 0.0006549796672 0.0002960963757 -3.125912599e-06 )
( 0.01142157055 0.004782692995 -0.000114343522 )
( 0.01176847331 0.004874628037 -0.0001244151354 )
( 0.01203586347 0.004992257338 -0.0001291792141 )
( 0.01223137043 0.005087574944 -0.0001350413368 )
( 0.01112066954 0.004667471163 -0.0001068781785 )
( 0.01050575729 0.0045664832 -8.572123625e-05 )
( 0.01006336883 0.004439334385 -7.310674118e-05 )
( 0.00939193368 0.004190154839 -6.016618863e-05 )
( 0.008488040417 0.003832756542 -4.864486255e-05 )
( 0.007395029999 0.003368209349 -3.942263356e-05 )
( 0.006212509237 0.002832669532 -3.250470763e-05 )
( 0.004885268863 0.002220938681 -2.510609738e-05 )
( 0.003614788875 0.001641047071 -1.810923277e-05 )
( 0.002463870449 0.001113285194 -1.215207794e-05 )
( 0.001391903497 0.0006282186951 -6.791225587e-06 )
( 0.0006519885501 0.000295563339 -3.123765737e-06 )
( 0.01145262457 0.00474067172 -0.000117992895 )
( 0.01183668803 0.004842920695 -0.0001277787378 )
( 0.01222076081 0.004912872799 -0.0001381577167 )
( 0.01231108792 0.005027074832 -0.0001383819763 )
( 0.01265775971 0.005078037735 -0.0001499870123 )
( 0.0111969877 0.004608682357 -0.0001123372713 )
( 0.01066112518 0.004558478016 -9.253709868e-05 )
( 0.01004377473 0.004390905611 -7.446105883e-05 )
( 0.009281812236 0.004118319601 -5.971713108e-05 )
( 0.008378408849 0.003763362532 -4.784652265e-05 )
( 0.00737456698 0.003327022772 -4.00735662e-05 )
( 0.006137935445 0.002773217857 -3.250019654e-05 )
( 0.004852298647 0.002194557805 -2.505984776e-05 )
( 0.003633760149 0.001638225513 -1.845481711e-05 )
( 0.00244389358 0.001101361588 -1.221842285e-05 )
( 0.00138424302 0.0006261703093 -6.762923022e-06 )
( 0.0006559346803 0.0002965818567 -3.187826223e-06 )
( 0.01155115943 0.004670348018 -0.0001227717876 )
( 0.01187624689 0.004791014362 -0.0001299152791 )
( 0.01282397006 0.004945787601 -0.0001578587398 )
( 0.01232337393 0.004787009675 -0.0001442934154 )
( 0.01327425148 0.005100861192 -0.000167146427 )
( 0.01140057202 0.004566296469 -0.0001189589821 )
( 0.01080408506 0.004533984698 -9.917253192e-05 )
( 0.009905946441 0.004312337376 -7.292937516e-05 )
( 0.009177894332 0.004054628313 -5.876251817e-05 )
( 0.00836198777 0.003723616945 -4.863513095e-05 )
( 0.007292700931 0.003265458392 -4.005515075e-05 )
( 0.006084962282 0.002734744921 -3.235598342e-05 )
( 0.004868888296 0.002186430618 -2.549878263e-05 )
( 0.003601214616 0.001618956681 -1.855877599e-05 )
( 0.002426875057 0.001095336513 -1.224226071e-05 )
( 0.001388642122 0.0006260868395 -6.909387594e-06 )
( 0.0006464855978 0.0002917306556 -3.18970433e-06 )
( 0.01180908922 0.004603490233 -0.0001314896654 )
( 0.01187792327 0.004715130664 -0.0001321300806 )
( 0.01294807903 0.004808007739 -0.0001614478097 )
( 0.01331335306 0.004948386457 -0.0001686761098 )
( 0.012545757 0.004646723159 -0.0001514991018 )
( 0.01093015354 0.004496803042 -0.0001050745705 )
( 0.01147454884 0.004534956068 -0.0001223245054 )
( 0.01027602423 0.004393516108 -8.395299665e-05 )
( 0.009829543531 0.004263131414 -7.19658201e-05 )
( 0.009161009453 0.004013611004 -5.947296086e-05 )
( 0.008275608532 0.003660524962 -4.865363007e-05 )
( 0.007221793756 0.003216136247 -3.986735101e-05 )
( 0.006096047349 0.002720276359 -3.288623338e-05 )
( 0.004820583388 0.002158026211 -2.559473614e-05 )
( 0.003570037894 0.001605367288 -1.857678035e-05 )
( 0.002431600355 0.001092884224 -1.248564695e-05 )
( 0.001370877377 0.0006168321706 -6.9089715e-06 )
( 0.0006398541736 0.0002894318022 -3.230157517e-06 )
( 0.01197706349 0.004491841421 -0.0001376110304 )
( 0.01332866959 0.004823257215 -0.0001687542681 )
( 0.01312541869 0.004634011537 -0.0001644485455 )
( 0.01377513446 0.004877754021 -0.0001720090368 )
( 0.01262883935 0.004544901662 -0.0001549010922 )
( 0.01044665277 0.004389674403 -9.08837028e-05 )
( 0.01103742979 0.004465390462 -0.0001095113694 )
( 0.01151411235 0.004482882097 -0.0001244287123 )
( 0.009820993058 0.004219111986 -7.349163207e-05 )
( 0.009073593654 0.003949936014 -5.933947614e-05 )
( 0.00819295831 0.003604771104 -4.826185977e-05 )
( 0.007225409616 0.003194750985 -4.052211443e-05 )
( 0.006030890159 0.002681631129 -3.304590791e-05 )
( 0.004771698732 0.002133482601 -2.563593989e-05 )
( 0.003574111732 0.001599214622 -1.89489765e-05 )
( 0.002401308389 0.00107678317 -1.250845708e-05 )
( 0.001355925109 0.0006114017451 -6.986660082e-06 )
( 0.0006397744874 0.0002885012364 -3.284911145e-06 )
( 0.0116098756 0.00442628609 -0.0001273394591 )
( 0.01217683125 0.004371609073 -0.0001443196961 )
( 0.01321142353 0.004346966743 -0.0001672729413 )
( 0.01383641176 0.004609218799 -0.0001715452381 )
( 0.01444826089 0.004855400417 -0.0001708162017 )
( 0.01270775311 0.004395308439 -0.0001579442178 )
( 0.01061626337 0.004372288473 -9.785105794e-05 )
( 0.01116845477 0.004443881568 -0.0001143354748 )
( 0.009707504883 0.004149327055 -7.219072722e-05 )
( 0.008987301961 0.003893344197 -5.86988026e-05 )
( 0.008188728243 0.003576176241 -4.905002424e-05 )
( 0.007145553827 0.003146238159 -4.062960579e-05 )
( 0.005963789765 0.00264478731 -3.311004912e-05 )
( 0.004774168134 0.002122907201 -2.610010415e-05 )
( 0.003529911628 0.001575462171 -1.89817074e-05 )
( 0.002372686751 0.001065456425 -1.258589236e-05 )
( 0.00135220564 0.0006075281417 -7.112431831e-06 )
( 0.000626637775 0.0002820039226 -3.288606194e-06 )
( 0.01152567472 0.004310732242 -0.0001260048739 )
( 0.01130996738 0.004382183775 -0.0001187401795 )
( 0.01233508531 0.004243456759 -0.0001490543946 )
( 0.01388852671 0.004351055715 -0.000174027271 )
( 0.01333903242 0.004079495091 -0.0001713262463 )
( 0.01274631731 0.004274670966 -0.0001592267508 )
( 0.01440665685 0.004573176149 -0.0001708933269 )
( 0.01009505987 0.004234678578 -8.330299897e-05 )
( 0.01073232759 0.004345937632 -0.0001027274266 )
( 0.009642163292 0.0041034366 -7.168649609e-05 )
( 0.008975215256 0.003857175121 -5.968332334e-05 )
( 0.008099140599 0.003519935533 -4.913022713e-05 )
( 0.007064045407 0.003099097172 -4.05994906e-05 )
( 0.005964062177 0.002629452152 -3.354937871e-05 )
( 0.00471531786 0.002090731636 -2.609237345e-05 )
( 0.003483965993 0.001555237221 -1.905789395e-05 )
( 0.002363827778 0.001056732959 -1.281228833e-05 )
( 0.00132670335 0.0005949130864 -7.1221898e-06 )
( 0.000616660167 0.0002780981013 -3.328923185e-06 )
( 0.01165344007 0.004193783738 -0.0001307008497 )
( 0.01103764772 0.004255585372 -0.0001135967104 )
( 0.01111608744 0.00422583241 -0.0001162923145 )
( 0.01090878248 0.004309888929 -0.0001086991761 )
( 0.01254138816 0.004086723551 -0.0001547833235 )
( 0.0140230488 0.004034483805 -0.0001755282865 )
( 0.0143518988 0.004356492776 -0.0001730018121 )
( 0.01337767113 0.003883210709 -0.0001743439352 )
( 0.01026419085 0.004231572151 -8.968987095e-05 )
( 0.009633953683 0.004059300292 -7.311625086e-05 )
( 0.008881005459 0.00379559258 -5.94609337e-05 )
( 0.008009532467 0.003466910683 -4.873384023e-05 )
( 0.007061444689 0.00307859946 -4.107072164e-05 )
( 0.005891363136 0.00258850609 -3.357816968e-05 )
( 0.00465003401 0.002058997285 -2.617598693e-05 )
( 0.003469150048 0.001540341531 -1.939250797e-05 )
( 0.00232015457 0.001034782967 -1.283311576e-05 )
( 0.001304946141 0.0005862211692 -7.214985544e-06 )
( 0.0006125438958 0.000275200553 -3.407830945e-06 )
( 0.01190972701 0.004068117123 -0.0001381308975 )
( 0.01127122343 0.004125656094 -0.000120293349 )
( 0.01116663497 0.004177591298 -0.0001178208622 )
( 0.01055795886 0.00418107491 -0.0001011299901 )
( 0.0106760636 0.004152907059 -0.0001052778243 )
( 0.01042047702 0.004212357104 -9.579227481e-05 )
( 0.01200721413 0.003973633517 -0.0001416768209 )
( 0.01264269557 0.003827295965 -0.0001593091001 )
( 0.01399736106 0.003559895791 -0.0001782245527 )
( 0.0134110786 0.003628368024 -0.000178123606 )
( 0.009506815113 0.003987267613 -7.182525587e-05 )
( 0.008790212683 0.003742118832 -5.891106048e-05 )
( 0.008003736846 0.003440837841 -4.939601786e-05 )
( 0.006978436839 0.003029775107 -4.110685404e-05 )
( 0.005808600225 0.002544975141 -3.354449291e-05 )
( 0.004629832227 0.002037785714 -2.661474537e-05 )
( 0.003406084608 0.001508214278 -1.944930227e-05 )
( 0.002280610846 0.001018132316 -1.29428181e-05 )
( 0.001293480629 0.0005785488174 -7.371163974e-06 )
( 0.0005949525512 0.0002663319174 -3.352140993e-06 )
( 0.01118325721 0.004008786753 -0.0001195794321 )
( 0.01096465718 0.004077868536 -0.0001129106095 )
( 0.01081220526 0.004132751841 -0.0001091225495 )
( 0.01006700285 0.004072496202 -8.84257388e-05 )
( 0.01024334319 0.004058179446 -9.487921488e-05 )
( 0.00988711603 0.004071378615 -8.214568516e-05 )
( 0.01209841296 0.003836445976 -0.0001451891585 )
( 0.01130443159 0.003894587513 -0.0001232619252 )
( 0.01216919348 0.003756808583 -0.0001476585894 )
( 0.01268732455 0.003615334164 -0.000162553697 )
( 0.01394135691 0.003134540981 -0.0001782220206 )
( 0.01341510378 0.00342185772 -0.0001814949064 )
( 0.0094380714 0.003943506163 -7.131656457e-05 )
( 0.008780116215 0.003709924407 -5.966930257e-05 )
( 0.007915196009 0.00338627561 -4.946915942e-05 )
( 0.006883636583 0.002977269469 -4.100733349e-05 )
( 0.005784675945 0.002518232213 -3.404832751e-05 )
( 0.004547944292 0.0019952578 -2.668659545e-05 )
( 0.003346242709 0.001480997656 -1.951627746e-05 )
( 0.002260333858 0.001003287151 -1.316427915e-05 )
( 0.001259462908 0.0005612297682 -7.291334441e-06 )
( 0.0005783234374 0.0002589564538 -3.327268132e-06 )
( 0.01067748573 0.003940734547 -0.0001086635748 )
( 0.01076412015 0.003913023043 -0.000110717272 )
( 0.01054670848 0.003995968495 -0.0001043640877 )
( 0.01036420651 0.004031622317 -9.915488772e-05 )
( 0.009435149841 0.003905255347 -7.274901873e-05 )
( 0.009710852988 0.003921902739 -8.178813732e-05 )
( 0.01153052505 0.003783016466 -0.0001302355959 )
( 0.01090650074 0.003816615557 -0.0001137542276 )
( 0.01080733351 0.003867530031 -0.0001116593048 )
( 0.01218339335 0.003654873231 -0.0001486327528 )
( 0.01164762489 0.003691203194 -0.00013399827 )
( 0.01225966401 0.003533078125 -0.0001503283856 )
( 0.01292687189 0.003369192593 -0.0001720748114 )
( 0.01408148929 0.002791709965 -0.0001699994027 )
( 0.01342197508 0.00300991605 -0.0001887881372 )
( 0.01343776472 0.003153770464 -0.0001861502533 )
( 0.008690953255 0.003651872976 -5.969861377e-05 )
( 0.007815691642 0.003329319879 -4.921439177e-05 )
( 0.006858141162 0.002945935819 -4.159044693e-05 )
( 0.005687320605 0.002466148464 -3.411304715e-05 )
( 0.004467964172 0.001955709886 -2.672889786e-05 )
( 0.003318741918 0.001458168728 -1.98239195e-05 )
( 0.002204717137 0.000973853108 -1.308976789e-05 )
( 0.001224922831 0.0005455338978 -7.232680218e-06 )
( 0.0005627379287 0.0002496233792 -3.374353128e-06 )
( 0.01017975342 0.003859875025 -9.773291094e-05 )
( 0.01030079927 0.003830226138 -0.0001012527791 )
( 0.01003882568 0.00389424758 -9.285826673e-05 )
( 0.009880156256 0.003916933667 -8.743131184e-05 )
( 0.009320409968 0.003839512821 -7.168662705e-05 )
( 0.0092494376 0.003793806769 -7.122775423e-05 )
( 0.0108172968 0.003697899636 -0.0001137370127 )
( 0.01058422774 0.003761267755 -0.0001078086061 )
( 0.01044667885 0.00381501182 -0.0001044552846 )
( 0.01177730132 0.003622063901 -0.0001372373081 )
( 0.01096980833 0.003589436412 -0.0001178815 )
( 0.0121382121 0.003329909174 -0.0001489238348 )
( 0.0119255688 0.003490232397 -0.0001410429541 )
( 0.01305429172 0.003136683954 -0.0001794614946 )
( 0.01410974469 0.002451956971 -0.0001627994207 )
( 0.01326060854 0.002747971332 -0.0001827272499 )
( 0.01315177977 0.002971347887 -0.0001849950349 )
( 0.008593857288 0.003595150542 -5.917598173e-05 )
( 0.007790146861 0.003293631598 -4.990349407e-05 )
( 0.006751512643 0.002886444097 -4.162933328e-05 )
( 0.005591520574 0.002415238647 -3.411691068e-05 )
( 0.004437138326 0.001926067285 -2.710115223e-05 )
( 0.003243763465 0.001416892745 -1.976850945e-05 )
( 0.00214693998 0.0009462005692 -1.302417149e-05 )
( 0.001193817123 0.0005266610533 -7.349056432e-06 )
( 0.0005316784373 0.000229986239 -3.398864919e-06 )
( 0.009670590982 0.003747556824 -8.643343608e-05 )
( 0.009863569401 0.003731859382 -9.209647396e-05 )
( 0.009483363479 0.003750544973 -8.064535359e-05 )
( 0.009232781827 0.003746644128 -7.241249114e-05 )
( 0.0102724405 0.003621346317 -0.0001037481416 )
( 0.01037899777 0.003602214623 -0.0001064322423 )
( 0.01015674882 0.003675067332 -0.0001005302111 )
( 0.009992049076 0.003707583528 -9.602346108e-05 )
( 0.01112637389 0.003492661985 -0.0001218715915 )
( 0.01044755895 0.003483098 -0.0001080221846 )
( 0.01044052467 0.003558472032 -0.0001076117042 )
( 0.01227628533 0.003095347667 -0.0001557341311 )
( 0.01163389347 0.003207644448 -0.0001356342254 )
( 0.01154093258 0.003277539043 -0.0001331067469 )
( 0.01141878217 0.003401252441 -0.0001286039769 )
( 0.01415163092 0.002133155707 -0.0001551141904 )
( 0.01334872004 0.002362616593 -0.0001783847256 )
( 0.01265905797 0.002551233629 -0.0001708049676 )
( 0.01257723849 0.002707503503 -0.0001680182177 )
( 0.01250755042 0.002911640564 -0.0001657950779 )
( 0.008567700163 0.003554302268 -6.001416477e-05 )
( 0.007680571172 0.003229422262 -4.993195398e-05 )
( 0.006646823604 0.002827955177 -4.153780174e-05 )
( 0.005562067963 0.002381348284 -3.456950071e-05 )
( 0.004347519018 0.001874881797 -2.712729656e-05 )
( 0.003165124217 0.00137663784 -1.975580744e-05 )
( 0.002103222068 0.000915193581 -1.324822006e-05 )
( 0.001141910208 0.0004894497106 -7.429132893e-06 )
( 0.0005120344576 0.0002092935756 -3.403035407e-06 )
( 0.009011315182 0.003580739256 -7.215041842e-05 )
( 0.00932608638 0.003592839465 -8.039140812e-05 )
( 0.009093794972 0.003670407925 -7.121009548e-05 )
( 0.009017335251 0.003623631783 -7.079679926e-05 )
( 0.00975584425 0.00353361899 -9.363470599e-05 )
( 0.009897042997 0.003512196708 -9.756036161e-05 )
( 0.009586160071 0.003550468246 -8.876743232e-05 )
( 0.009516812861 0.003590904875 -8.571505896e-05 )
( 0.01054474711 0.003416876774 -0.0001102260794 )
( 0.01063856203 0.003374970984 -0.000112229849 )
( 0.00994986482 0.003400323913 -9.99764161e-05 )
( 0.009938276373 0.003475933103 -9.915635019e-05 )
( 0.01166378148 0.003116195789 -0.0001370630052 )
( 0.01162725873 0.002986374311 -0.0001370500977 )
( 0.01104515418 0.003119328525 -0.0001220181439 )
( 0.0107846465 0.003189611482 -0.0001166902512 )
( 0.01057652198 0.003280248726 -0.0001124042537 )
( 0.01420557685 0.001846058061 -0.0001483992382 )
( 0.01344577689 0.002035571262 -0.0001725256006 )
( 0.01281178184 0.00220312993 -0.0001723381429 )
( 0.01274408586 0.002348598791 -0.000171968888 )
( 0.01183272339 0.002425817074 -0.0001462535583 )
( 0.01175673399 0.002599666594 -0.0001433824655 )
( 0.01151106041 0.002800418297 -0.0001356183639 )
( 0.008459289558 0.003487295471 -5.983429219e-05 )
( 0.007574015297 0.003168268828 -4.965571497e-05 )
( 0.006621927023 0.002792015439 -4.211732448e-05 )
( 0.005464532413 0.002323517576 -3.465592454e-05 )
( 0.004254132509 0.001823563478 -2.714347102e-05 )
( 0.003120602574 0.001336870482 -2.010854769e-05 )
( 0.002033535624 0.0008607664495 -1.339745177e-05 )
( 0.001107539865 0.000453825196 -7.401328276e-06 )
( 0.0005178030697 0.0002086258901 -3.409222245e-06 )
( 0.008903397247 0.003512028605 -7.123733667e-05 )
( 0.008337734267 0.003389202058 -6.016256521e-05 )
( 0.008852948435 0.003467022907 -7.101648225e-05 )
( 0.008356127888 0.003428529948 -5.927215534e-05 )
( 0.009184974246 0.003384508193 -8.243721095e-05 )
( 0.009397722781 0.003390083788 -8.78564897e-05 )
( 0.008895263076 0.003380496055 -7.460579218e-05 )
( 0.008900796063 0.003429254517 -7.297744742e-05 )
( 0.0100244917 0.00332903862 -0.0001023627483 )
( 0.01022951119 0.003309685737 -0.0001058812195 )
( 0.00965779461 0.003324938472 -9.510581003e-05 )
( 0.009569656104 0.003382493043 -9.225594113e-05 )
( 0.01106965821 0.003036884824 -0.0001226703171 )
( 0.01116952207 0.002916039899 -0.0001257270924 )
( 0.01021708921 0.002975567942 -0.0001075189066 )
( 0.01023461949 0.003140880959 -0.0001072412415 )
( 0.01025404409 0.003074838314 -0.0001070639555 )
( 0.01018856093 0.00318525359 -0.0001066276018 )
( 0.01011481881 0.003219187725 -0.0001054053282 )
( 0.0142632667 0.001591283362 -0.0001433635771 )
( 0.01349814516 0.001743729459 -0.0001655848173 )
( 0.01295508258 0.001874783542 -0.0001682038128 )
( 0.01289602648 0.002015328966 -0.0001702691079 )
( 0.01217980683 0.002091558417 -0.0001546737039 )
( 0.01194216497 0.00223779981 -0.0001493542222 )
( 0.01117561199 0.00227891095 -0.0001286578772 )
( 0.01122907363 0.002394659212 -0.0001285731414 )
( 0.01111509558 0.002545888769 -0.0001262891747 )
( 0.01119656954 0.002479808405 -0.0001287081686 )
( 0.01100637764 0.002657147823 -0.0001233419607 )
( 0.01090292819 0.002730404958 -0.0001207384194 )
( 0.007553626783 0.003130945377 -5.030257307e-05 )
( 0.006522905082 0.002730770968 -4.218403046e-05 )
( 0.005364912096 0.00226484891 -3.467849092e-05 )
( 0.004222027957 0.001781157102 -2.763103112e-05 )
( 0.003049308434 0.001273277099 -2.037184822e-05 )
( 0.001983466791 0.0008094634977 -1.338677976e-05 )
( 0.001115093241 0.0004496061883 -7.430394817e-06 )
( 0.0005272979033 0.0002108676999 -3.501357014e-06 )
( 0.008248083293 0.003326910082 -6.009753997e-05 )
( 0.008168239146 0.003268753877 -5.980974674e-05 )
( 0.008761133999 0.003300579498 -7.350386295e-05 )
( 0.008701233193 0.003256354947 -7.318612188e-05 )
( 0.008712525479 0.003215815406 -7.457819447e-05 )
( 0.008190163411 0.00318450178 -6.251952436e-05 )
( 0.008203378879 0.00323614059 -6.118485908e-05 )
( 0.009786881506 0.003291439032 -9.846915782e-05 )
( 0.009913359769 0.003257831559 -0.0001012993962 )
( 0.009187058546 0.003222327679 -8.602383605e-05 )
( 0.009007288143 0.003228103742 -8.17879336e-05 )
( 0.01044133957 0.002910905285 -0.0001112910832 )
( 0.01055568736 0.002793336753 -0.0001133582846 )
( 0.009821027517 0.00288507482 -0.000102644437 )
( 0.009733293205 0.002907636575 -0.0001008083418 )
( 0.009871646762 0.003006412182 -0.0001014349182 )
( 0.00972945895 0.003060257062 -9.941924509e-05 )
( 0.009686524048 0.003100005677 -9.877779667e-05 )
( 0.009589668363 0.003136405954 -9.65144427e-05 )
( 0.01432284713 0.001364366268 -0.0001400763722 )
( 0.01370300073 0.00151712494 -0.0001590906031 )
( 0.01304694824 0.001625135308 -0.0001645899611 )
( 0.01303387713 0.001710343524 -0.000166496262 )
( 0.01247594971 0.001784248394 -0.0001569468732 )
( 0.01229560375 0.001933132531 -0.0001558219083 )
( 0.01122858096 0.001951270853 -0.0001295614347 )
( 0.01125121955 0.00216786447 -0.0001305585029 )
( 0.01132709533 0.002095275093 -0.0001317076967 )
( 0.01056301594 0.002174384193 -0.0001157071747 )
( 0.01059922948 0.002292287769 -0.0001160275424 )
( 0.01030662842 0.002422254998 -0.0001118670989 )
( 0.01057769917 0.002372968709 -0.0001153997146 )
( 0.01015484054 0.00251187454 -0.0001085805416 )
( 0.009950457141 0.002588970587 -0.0001053849774 )
( 0.007457635365 0.003068602178 -5.040509132e-05 )
( 0.00642474601 0.002669056179 -4.21663317e-05 )
( 0.005353762303 0.002225168515 -3.532791743e-05 )
( 0.004162229132 0.001717246836 -2.804218821e-05 )
( 0.002986919135 0.001214287942 -2.037317972e-05 )
( 0.001989363926 0.0008025815478 -1.34710217e-05 )
( 0.001130388351 0.0004520421789 -7.626660135e-06 )
( 0.0005232831463 0.0002086428285 -3.497650823e-06 )
( 0.007366233505 0.003007479012 -5.021343532e-05 )
( 0.008088519797 0.003113777144 -6.236729678e-05 )
( 0.008011190221 0.003060312476 -6.205178215e-05 )
( 0.008587108925 0.003145663533 -7.352083048e-05 )
( 0.008011142723 0.003025430953 -6.295138155e-05 )
( 0.007373911329 0.002922827145 -5.233611955e-05 )
( 0.007391856983 0.002974908566 -5.130438512e-05 )
( 0.0093532959 0.003203459084 -9.008247434e-05 )
( 0.009486167692 0.003173450008 -9.354468784e-05 )
( 0.00848233141 0.003050202038 -7.361312601e-05 )
( 0.008507838473 0.003098536748 -7.298580022e-05 )
( 0.009875148535 0.002842072863 -0.0001031866559 )
( 0.009870162234 0.002772990149 -0.0001026301179 )
( 0.0100425873 0.002678352874 -0.0001057375994 )
( 0.009956544265 0.002717635827 -0.0001041508513 )
( 0.009296366014 0.002791872015 -9.541938198e-05 )
( 0.009448840283 0.002924667904 -9.593360301e-05 )
( 0.009171896614 0.002810217673 -9.265600238e-05 )
( 0.009334767237 0.002973182825 -9.386063903e-05 )
( 0.009195597842 0.003000690369 -9.08094662e-05 )
( 0.009011154063 0.003016416915 -8.672478725e-05 )
( 0.01438081823 0.001162069268 -0.0001381796319 )
( 0.01379418001 0.001298725023 -0.0001534989569 )
( 0.01294717845 0.001426889678 -0.000154315916 )
( 0.01278579328 0.001569072949 -0.0001587367005 )
( 0.0126604531 0.00165977038 -0.0001585189602 )
( 0.01169688255 0.001648070291 -0.0001356041466 )
( 0.0114992829 0.001789035741 -0.0001339476148 )
( 0.01070495602 0.001801363192 -0.0001199571561 )
( 0.01060794853 0.001861465629 -0.0001185823203 )
( 0.01083773933 0.002009258838 -0.0001216856472 )
( 0.01061736327 0.002057815669 -0.0001183700224 )
( 0.009996839799 0.002056810306 -0.0001099186265 )
( 0.009897777811 0.002152335132 -0.000107701424 )
( 0.009608839639 0.002324898262 -0.0001026372265 )
( 0.009711945429 0.002288968768 -0.0001043995726 )
( 0.009651699103 0.002208061516 -0.0001049891871 )
( 0.009525449947 0.002377476776 -0.0001011274944 )
( 0.009539009072 0.002445325488 -0.0001009332409 )
( 0.009438160807 0.00251291832 -9.91484776e-05 )
( 0.009566917084 0.002595978323 -0.0001001870478 )
( 0.009503936395 0.002486902056 -0.0001004048245 )
( 0.006434682291 0.002633792348 -4.300164801e-05 )
( 0.005311014596 0.002166098449 -3.583095895e-05 )
( 0.004088899121 0.001654772204 -2.797511661e-05 )
( 0.002983910497 0.001202619402 -2.037593003e-05 )
( 0.002010311466 0.0008035217761 -1.369276197e-05 )
( 0.001122475835 0.0004472675209 -7.507686405e-06 )
( 0.0005210283562 0.0002082788124 -3.486214609e-06 )
( 0.007274838164 0.002853457117 -5.232921831e-05 )
( 0.007202331442 0.002802381059 -5.221081301e-05 )
( 0.007916882634 0.002963821171 -6.297237996e-05 )
( 0.007208407857 0.002772960812 -5.310494453e-05 )
( 0.006407059729 0.002579564229 -4.373343472e-05 )
( 0.008758624084 0.003053256311 -7.992702012e-05 )
( 0.008944393136 0.003054545261 -8.416666969e-05 )
( 0.00777957309 0.002865111455 -6.276540807e-05 )
( 0.00833385624 0.002974375384 -7.2357725e-05 )
( 0.007812890224 0.002906535752 -6.23720116e-05 )
( 0.009310686961 0.002749636536 -9.632806177e-05 )
( 0.009308903478 0.002679891884 -9.61729238e-05 )
( 0.009356223978 0.002612673678 -9.750490426e-05 )
( 0.008712854236 0.002656453755 -8.672624972e-05 )
( 0.008991570212 0.002831035759 -8.893090126e-05 )
( 0.008600506932 0.002684912179 -8.388102287e-05 )
( 0.008782607503 0.002848814707 -8.485478611e-05 )
( 0.008581616916 0.002854372375 -8.090804477e-05 )
( 0.008288806304 0.002851169091 -7.460002962e-05 )
( 0.01388438325 0.001102564624 -0.0001490015275 )
( 0.0144363381 0.0009825604502 -0.0001368919038 )
( 0.0131126456 0.001192740048 -0.0001466573012 )
( 0.01239533722 0.001240291866 -0.000135624723 )
( 0.01228217781 0.00132324791 -0.0001369559177 )
( 0.0120268343 0.001421671128 -0.0001359774324 )
( 0.01186484378 0.001527601853 -0.0001362206531 )
( 0.01115838159 0.001530872076 -0.0001248115586 )
( 0.01106227189 0.001576842624 -0.0001245176682 )
( 0.01082589291 0.001713639009 -0.0001220702397 )
( 0.01092447434 0.001657523331 -0.0001234642259 )
( 0.009788928553 0.001639808295 -0.0001100910158 )
( 0.01038526744 0.001927247155 -0.0001150465396 )
( 0.009651846252 0.001711675897 -0.0001085456315 )
( 0.01014672592 0.001980508445 -0.0001121370224 )
( 0.009421218187 0.001934467116 -0.0001046961115 )
( 0.009338903241 0.001967342338 -0.0001033090011 )
( 0.009256154299 0.002068680711 -0.0001014476002 )
( 0.009244973771 0.002008192474 -0.0001015902235 )
( 0.008994993754 0.002219089074 -9.661797958e-05 )
( 0.009231294505 0.002206127625 -9.955144196e-05 )
( 0.009201358072 0.00210626144 -0.0001005467639 )
( 0.00911965128 0.002129546367 -9.910395602e-05 )
( 0.008941930719 0.002282902598 -9.477597632e-05 )
( 0.00895136781 0.002350169467 -9.424833115e-05 )
( 0.009186646901 0.002531370847 -9.579904145e-05 )
( 0.008853035048 0.002415580675 -9.16701174e-05 )
( 0.008951339871 0.00239422312 -9.360668628e-05 )
( 0.005227020476 0.002101078397 -3.582408317e-05 )
( 0.004069923889 0.001634427696 -2.804106043e-05 )