/*--------------------------------*- C++ -*----------------------------------*\
  =========                 |
  \\      /  F ield         | OpenFOAM: The Open Source CFD Toolbox
   \\    /   O peration     | Website:  https://openfoam.org
    \\  /    A nd           | Version:  8
     \\/     M anipulation  |
\*---------------------------------------------------------------------------*/






FoamFile
{
    version     2.0;
    format      ascii;
    class       volScalarField;
    location    "0";
    object      V;
}
// * * * * * * * * * * * * * * * * * * * * * * * * * * * * * * * * * * * * * //

dimensions      [0 3 0 0 0 0 0];


internalField   nonuniform List<scalar> 
26254
(
8.143590903e-05
0.0002454670594
7.531357202e-05
0.0002433235257
7.726160756e-05
7.75610716e-05
8.15117593e-05
7.692452329e-05
0.0002615493714
0.0002621026076
8.003397866e-05
7.499691464e-05
7.542088447e-05
2.531014909e-05
2.589634562e-05
2.409804913e-05
2.469196501e-05
2.58067301e-05
0.0002515533032
8.305292988e-05
8.481673486e-05
0.000272787546
8.253576873e-05
8.068515139e-05
2.355236608e-05
2.337691624e-05
2.33698191e-05
2.528541751e-05
2.388472425e-05
2.407073615e-05
2.494621006e-05
2.300952332e-05
0.0002611646408
0.000270250641
8.272698508e-05
8.877228078e-05
0.0002862856216
8.061435709e-05
2.365710722e-05
2.465969863e-05
2.598899651e-05
2.307415094e-05
2.259236076e-05
2.395786004e-05
2.220468009e-05
2.437460416e-05
2.054816482e-05
1.259800535e-05
2.100720613e-05
0.0002587322277
0.0002675689216
0.0002829147564
7.861913781e-05
8.565957226e-05
0.0002994362638
7.889860353e-05
2.670821519e-05
2.495462306e-05
2.391081659e-05
1.971649806e-05
2.31407283e-05
2.104041865e-05
1.206996566e-05
1.990895288e-05
1.249822731e-05
1.450447272e-05
9.867761227e-06
1.137532264e-05
1.504328878e-05
8.332331551e-05
0.0002564212696
8.223986727e-05
8.551212276e-05
0.0002785337114
0.0002961036218
8.04159009e-05
0.0003129047035
2.541513949e-05
2.455279559e-05
2.584070456e-05
2.462356994e-05
2.225614938e-05
2.321809632e-05
1.194745317e-05
1.391825321e-05
1.883201599e-05
2.246094937e-05
1.090309242e-05
9.466400492e-06
1.430461812e-05
9.651858127e-06
1.119042561e-05
1.174482952e-05
8.499787249e-06
9.500774252e-06
1.206593774e-05
8.325852021e-05
8.287266087e-05
0.0002755148801
0.0002633650751
8.924507656e-05
0.0002927496096
0.0003100025859
7.856326946e-05
2.661593713e-05
0.000326730808
2.51361161e-05
2.220790112e-05
2.452833409e-05
2.020406773e-05
1.069808802e-05
9.262117607e-06
1.134044169e-05
1.13152716e-05
1.36570281e-05
1.79212231e-05
9.172545986e-06
8.2366341e-06
1.16152187e-05
8.368874092e-06
9.386234644e-06
9.548330757e-06
7.279023399e-06
7.932827599e-06
9.72755996e-06
8.044255078e-05
7.850991905e-05
0.0002723545943
0.0002892895405
0.0002616955362
8.590092175e-05
0.000306952016
0.0003242207618
2.529157632e-05
2.43308713e-05
2.593688849e-05
2.412511533e-05
0.0003408113497
2.453722823e-05
2.210800435e-05
2.127383269e-05
2.328974111e-05
9.020406402e-06
8.070466088e-06
9.272778553e-06
9.022140168e-06
1.033370818e-05
1.114471208e-05
1.034317785e-05
1.299556705e-05
7.707910822e-06
7.112649695e-06
9.467226856e-06
7.20389843e-06
7.865493994e-06
7.789725598e-06
6.204898828e-06
6.622056702e-06
7.878085151e-06
7.836952825e-05
2.665823371e-05
8.024157796e-05
0.0002610276823
0.0002847964509
0.0003036514662
8.663708685e-05
8.245415137e-05
8.452323208e-05
0.0003215426873
0.0003387031265
2.448438337e-05
2.413401374e-05
2.172288975e-05
0.0003550263007
2.025349662e-05
1.405119791e-05
2.355281601e-05
7.597992601e-06
6.9804198e-06
7.605455545e-06
7.861292914e-06
8.726114229e-06
9.128637764e-06
8.513200886e-06
9.552473529e-06
1.064291713e-05
6.471075234e-06
6.105728078e-06
7.741955513e-06
6.165820635e-06
6.586008346e-06
6.374233247e-06
5.269765577e-06
5.526778501e-06
6.405796434e-06
2.564265906e-05
2.496990393e-05
2.605281024e-05
2.445019649e-05
2.632117833e-05
7.790012663e-05
0.0002695790381
0.0002820139973
0.0003003775854
0.0003187300893
9.141444431e-05
8.349212877e-05
8.198245704e-05
0.0003364444125
0.0003533119828
2.118091597e-05
2.3203871e-05
2.300416489e-05
1.921667363e-05
0.0003691687817
1.196133508e-05
1.442846767e-05
1.043262451e-05
1.155079964e-05
6.394420756e-06
6.002651969e-06
6.254542889e-06
6.806874574e-06
7.364714978e-06
7.50185225e-06
7.456807588e-06
8.152139246e-06
8.748354655e-06
5.428502382e-06
5.216732645e-06
6.34919041e-06
5.253475052e-06
5.511110528e-06
5.229527402e-06
4.462236252e-06
4.611909803e-06
5.226846869e-06
2.440936804e-05
2.409686576e-05
2.552196637e-05
2.54617957e-05
2.35745662e-05
2.405689904e-05
2.4561577e-05
0.0002691362489
0.0002793460304
0.0002970965063
0.0003158033951
0.0003340482077
8.867727766e-05
8.445872367e-05
8.497944025e-05
0.0003514681979
0.0003678845399
2.21611666e-05
1.880132029e-05
1.160907562e-05
1.376114248e-05
0.0003832961155
1.090374542e-05
9.492667143e-06
1.163054596e-05
8.824809375e-06
9.551512683e-06
5.377695804e-06
5.138047542e-06
5.155366064e-06
5.864473283e-06
6.212969581e-06
6.182636029e-06
6.488423155e-06
6.944356134e-06
7.214437891e-06
4.550984955e-06
4.440383522e-06
5.219788329e-06
4.459904517e-06
4.609194927e-06
4.299950073e-06
3.769311578e-06
3.847971005e-06
4.277776e-06
2.461118799e-05
2.104864203e-05
2.234010176e-05
1.463690619e-05
2.339684488e-05
2.407906796e-05
2.312017215e-05
2.452176432e-05
8.240088e-05
8.667735347e-05
0.0002681902319
8.881990041e-05
0.0002928392458
0.0003126745303
0.0003315152593
0.0003494832505
2.712357176e-05
2.588784064e-05
8.357018356e-05
2.826052546e-05
0.0003663837266
0.0003818486361
1.075987708e-05
1.312179824e-05
9.051547232e-06
1.043582329e-05
1.120629545e-05
0.001008949212
9.141026259e-06
8.190445603e-06
9.422073983e-06
7.458150335e-06
7.914355064e-06
4.519975665e-06
4.381683097e-06
4.25769433e-06
5.032272302e-06
5.239410126e-06
5.108060728e-06
5.616157552e-06
5.906554876e-06
5.966419933e-06
3.813297543e-06
3.768066244e-06
4.300323115e-06
3.775123457e-06
3.853187366e-06
3.542325652e-06
3.177703337e-06
3.210225595e-06
3.510150022e-06
1.262705926e-05
1.995534523e-05
1.485766355e-05
1.062818711e-05
1.183792256e-05
2.3371238e-05
1.975442247e-05
1.208823886e-05
2.136586768e-05
2.586029256e-05
8.978527872e-05
8.376543445e-05
0.0002903659529
0.0002771561142
9.354490937e-05
0.0003096360876
0.0003288943267
0.0003473951474
0.0003648728831
2.596216032e-05
2.58696471e-05
2.603146491e-05
2.693393201e-05
2.752517002e-05
0.0003813240856
9.725518562e-06
8.615050568e-06
1.075084258e-05
7.878315804e-06
8.807146849e-06
9.162677766e-06
0.001005780739
7.664816195e-06
7.033079229e-06
7.667043546e-06
6.298472428e-06
6.56927141e-06
3.797203114e-06
3.725452115e-06
3.522210185e-06
4.30412122e-06
4.417046108e-06
4.229290156e-06
4.840622373e-06
5.017533274e-06
4.946529741e-06
3.193782127e-06
3.189633074e-06
3.549183452e-06
3.187885245e-06
3.220010603e-06
2.922896453e-06
2.674618351e-06
2.677940372e-06
2.886694003e-06
9.802084331e-06
1.135700039e-05
1.441498512e-05
1.192806706e-05
8.973074306e-06
9.76577166e-06
1.877066514e-05
1.194914276e-05
1.393892664e-05
1.099277595e-05
9.522025662e-06
2.256346685e-05
2.32836939e-05
8.377205626e-05
2.83068747e-05
8.56896798e-05
0.0002880368622
0.0003066640222
0.0002767978119
9.038435783e-05
0.0003262190816
0.000345202021
0.0003631413201
0.0003795363731
2.488857744e-05
2.636279783e-05
2.343295673e-05
2.5915692e-05
8.284847765e-06
7.550121754e-06
8.838547162e-06
6.814947408e-06
7.427779535e-06
7.518453869e-06
0.001001952918
6.428100647e-06
6.016040713e-06
6.263573329e-06
5.315825405e-06
5.460943911e-06
3.188710911e-06
3.159763207e-06
2.917919926e-06
3.671562701e-06
3.722799968e-06
3.508140933e-06
4.157885042e-06
4.25786461e-06
4.109786505e-06
2.673942098e-06
2.694537037e-06
2.93371468e-06
2.686768863e-06
2.690072092e-06
2.415076679e-06
2.248188304e-06
2.233752667e-06
2.378487366e-06
8.437392663e-06
9.485097454e-06
1.167773249e-05
9.624935594e-06
7.567697563e-06
8.071739769e-06
1.086661503e-05
1.340511831e-05
9.249161599e-06
1.068430925e-05
1.135426529e-05
9.233045637e-06
8.265973829e-06
1.474490689e-05
2.552547855e-05
2.729225712e-05
2.584096747e-05
2.581972097e-05
2.708963667e-05
8.441689521e-05
2.825391309e-05
0.0002771070613
0.0003027899702
0.0003234229834
9.165377926e-05
8.397755673e-05
8.91592107e-05
0.0003429488947
0.0003614573135
0.0003789654197
2.518715602e-05
2.309085394e-05
2.10047351e-05
2.463167544e-05
7.043709798e-06
6.568728259e-06
7.288246599e-06
5.8662029e-06
6.261030438e-06
6.188542234e-06
0.0009977369954
0.0003768721396
5.391711823e-06
5.130044232e-06
5.134766142e-06
4.484166566e-06
4.545398906e-06
2.676823433e-06
2.674611183e-06
2.420220272e-06
3.125153767e-06
3.136998325e-06
2.914537679e-06
3.561447071e-06
3.61006248e-06
3.420913042e-06
2.238040886e-06
2.272516865e-06
2.428110054e-06
2.260823429e-06
2.246790862e-06
7.22274453e-06
7.921068451e-06
9.499507526e-06
7.801649114e-06
6.376828868e-06
6.682458978e-06
8.730625581e-06
9.829355758e-06
1.095127127e-05
8.061984316e-06
9.002159958e-06
9.281753139e-06
7.748652008e-06
7.126025267e-06
1.072927881e-05
1.193653301e-05
2.614024384e-05
2.574496636e-05
2.305541335e-05
2.578395019e-05
2.627428304e-05
2.685021851e-05
2.792724775e-05
0.0002872415428
0.0003008967606
0.0003208267073
0.0003406711946
9.670020951e-05
9.191919963e-05
8.637052833e-05
0.000359571613
1.262506894e-05
2.066739876e-05
2.457140568e-05
1.491122398e-05
5.9787912e-06
5.682047432e-06
6.025592984e-06
5.029622567e-06
5.275155725e-06
5.107708623e-06
0.0009935190458
0.0003740129955
0.0003763310831
4.52297629e-06
4.363420781e-06
4.22212623e-06
3.780985264e-06
3.787456268e-06
2.246478521e-06
2.260229747e-06
2.655294815e-06
2.642902253e-06
2.424628263e-06
3.043553673e-06
3.058591369e-06
2.852042724e-06
6.155872225e-06
6.61448841e-06
7.755676186e-06
6.34892906e-06
5.369434991e-06
5.539990095e-06
7.634541116e-06
8.356568687e-06
8.978317029e-06
6.974124716e-06
7.577105443e-06
7.611006437e-06
6.498492628e-06
6.109795945e-06
9.040128481e-06
9.830376546e-06
2.473343276e-05
2.287527098e-05
2.452188052e-05
2.015545232e-05
2.637626187e-05
2.304208836e-05
2.623774317e-05
2.883125837e-05
0.000287583449
0.00029927312
0.000318420621
0.0003384537051
0.0003578257155
9.356671705e-05
8.616608883e-05
8.857857271e-05
1.130212527e-05
9.748486301e-06
1.235605806e-05
1.440294823e-05
1.196158862e-05
5.068066417e-06
4.892455676e-06
4.99296723e-06
4.298557314e-06
4.442837291e-06
4.225552704e-06
0.0009897579498
0.0003712107117
0.0003736145578
3.794614642e-06
3.703637082e-06
3.480800652e-06
3.186917187e-06
3.158812326e-06
2.252735841e-06
2.22629673e-06
2.596036805e-06
2.589787072e-06
2.38101659e-06
5.228125533e-06
5.523122711e-06
6.351985379e-06
5.184665752e-06
4.518438361e-06
4.598269405e-06
6.628319245e-06
7.091945906e-06
7.383604408e-06
5.997258691e-06
6.372247887e-06
6.257688433e-06
5.446973515e-06
5.215713296e-06
7.61149851e-06
8.114282736e-06
1.228079121e-05
2.040892052e-05
2.445699036e-05
1.414368549e-05
2.488722007e-05
2.32194689e-05
2.01756543e-05
2.506164341e-05
2.768321609e-05
8.698123156e-05
9.23720614e-05
0.0002890374826
9.599275811e-05
0.0003152325749
0.0003362031699
0.0003559147978
2.822106981e-05
2.665000291e-05
2.648351449e-05
8.702851679e-05
2.925181011e-05
9.4246649e-06
8.378257815e-06
9.581800659e-06
1.113186824e-05
1.166442528e-05
9.646311477e-06
4.291287811e-06
4.196951557e-06
4.145378291e-06
3.66416826e-06
3.74066349e-06
3.502832175e-06
0.0009867092819
0.0003687561475
0.0003710794446
0.0003542747381
3.183831257e-06
3.13823489e-06
2.876127614e-06
2.685374751e-06
2.636574431e-06
2.210842985e-06
2.19172372e-06
4.427558923e-06
4.611622752e-06
5.216569509e-06
4.246655358e-06
3.800388892e-06
3.820450401e-06
5.72217922e-06
6.009948096e-06
6.08847795e-06
5.132887797e-06
5.35522294e-06
5.156836798e-06
4.563478489e-06
4.436892827e-06
6.40484738e-06
6.710861224e-06
9.375993887e-06
1.096949657e-05
1.22572463e-05
1.414823791e-05
1.148615333e-05
2.063628253e-05
1.235025387e-05
2.488343018e-05
1.419639247e-05
2.359434314e-05
9.553626642e-05
9.220547746e-05
0.0003142769151
0.0003009184048
0.0001007420511
0.0003343023136
2.694229562e-05
2.665796056e-05
2.578467187e-05
2.708406909e-05
2.768302644e-05
2.88822856e-05
7.862605023e-06
7.166610593e-06
8.296063422e-06
9.326147229e-06
9.487296025e-06
7.816026853e-06
3.630206247e-06
3.589450268e-06
3.447436571e-06
3.116719624e-06
3.148639835e-06
2.908766618e-06
0.000983778024
0.0003669724634
0.000369026265
0.0003511416011
0.0003525710879
2.671565331e-06
2.655389462e-06
2.381109175e-06
2.262186914e-06
2.202136793e-06
3.740898006e-06
3.850413323e-06
4.294178191e-06
3.487374246e-06
3.195096469e-06
3.176894635e-06
4.917583458e-06
5.086893232e-06
5.03219413e-06
4.376456488e-06
4.497899876e-06
4.258013957e-06
3.821814543e-06
3.763671432e-06
5.386828545e-06
5.559448548e-06
8.133139459e-06
9.195776078e-06
1.106251804e-05
9.476199839e-06
1.149485371e-05
9.366437127e-06
1.243721157e-05
1.427818677e-05
1.106201847e-05
9.442153056e-06
2.059463754e-05
1.152099418e-05
2.546409825e-05
8.503535198e-05
2.987650626e-05
8.749792409e-05
0.0003138168628
0.0003326986702
0.0003034168069
9.787038323e-05
2.374085282e-05
2.545249322e-05
2.704650742e-05
2.381558298e-05
2.679811125e-05
6.561927047e-06
6.106953142e-06
7.139614254e-06
7.812544098e-06
7.74577609e-06
6.359565001e-06
3.06860327e-06
3.062302563e-06
2.87111254e-06
2.646389913e-06
2.649735276e-06
2.419039862e-06
0.0009810753343
0.0003649977678
0.0003672207973
0.0003491312774
0.00034988796
2.241869966e-06
2.244205085e-06
3.154747298e-06
3.214760594e-06
3.541994043e-06
2.870217829e-06
2.685261189e-06
2.643639855e-06
4.21070815e-06
4.301304085e-06
4.167478843e-06
3.720068458e-06
3.776001712e-06
3.521756626e-06
3.199667406e-06
3.185228817e-06
4.528753602e-06
4.612151486e-06
7.012047748e-06
7.708104474e-06
9.268429094e-06
8.21845456e-06
9.37696862e-06
7.665613972e-06
9.578061544e-06
1.122062311e-05
1.158534448e-05
9.269817478e-06
8.187050249e-06
1.265266477e-05
1.44470393e-05
9.388750243e-06
2.122396819e-05
8.517912646e-05
2.867564453e-05
2.972384399e-05
9.139572673e-05
0.0003045807945
0.0003303892608
0.0001030017789
9.490399424e-05
9.89592557e-05
2.568367881e-05
2.176897983e-05
2.443052054e-05
2.20880442e-05
2.668726713e-05
5.478165282e-06
5.188028803e-06
6.114967983e-06
6.544049775e-06
6.344873526e-06
5.193538518e-06
2.592218566e-06
2.607267194e-06
2.394058451e-06
2.243762417e-06
2.229478501e-06
0.0009801396971
0.0003623838798
0.0003644108759
0.0003466923771
0.0003481827648
0.0003303652647
2.656309088e-06
2.683986642e-06
2.926574313e-06
2.366762428e-06
2.256113014e-06
2.201227012e-06
3.594755338e-06
3.634013592e-06
3.457264607e-06
3.154243227e-06
3.168693329e-06
2.916963376e-06
2.678092478e-06
2.690593738e-06
3.806053202e-06
3.830903669e-06
6.016193505e-06
6.460589306e-06
7.764983261e-06
7.083699355e-06
7.676544625e-06
6.293510764e-06
8.29434375e-06
9.378620212e-06
9.438837933e-06
7.766258522e-06
7.054430801e-06
1.13502214e-05
9.642307277e-06
1.169554144e-05
7.679167115e-06
1.301174515e-05
1.479169064e-05
2.843495844e-05
2.647251846e-05
2.662617952e-05
2.540848015e-05
2.563287746e-05
2.968866236e-05
9.120221367e-05
0.0003186257405
0.0001084186512
9.807791374e-05
0.0001002043128
1.696109611e-05
2.361809598e-05
2.291338815e-05
1.63577588e-05
4.574631449e-06
4.39638995e-06
5.217259694e-06
5.481144123e-06
5.212267592e-06
4.254893848e-06
2.188619715e-06
2.216125958e-06
0.0009806001749
0.0003623749659
0.0003628810426
0.0003413453286
0.0003444351405
0.0003281539741
0.0003296401834
2.233764859e-06
2.240808042e-06
2.421605684e-06
3.061469614e-06
3.068119601e-06
2.872278357e-06
2.669027972e-06
2.658173468e-06
2.418954268e-06
2.241050615e-06
2.269242682e-06
3.197761879e-06
3.185261375e-06
5.141682568e-06
5.414627449e-06
6.505203862e-06
6.075711501e-06
6.303999057e-06
5.181208177e-06
7.138327107e-06
7.839922064e-06
7.71763623e-06
6.505387298e-06
6.048354552e-06
9.474884136e-06
8.334946935e-06
9.509096977e-06
6.300971898e-06
1.003054545e-05
1.187901509e-05
1.195479671e-05
2.61217904e-05
2.669101452e-05
2.379662446e-05
2.185321007e-05
2.534904423e-05
2.847120964e-05
2.682950926e-05
2.860144455e-05
3.0848418e-05
0.0003066253114
0.0001085191643
9.648930237e-05
9.970884619e-05
1.160672622e-05
1.335427683e-05
2.005401756e-05
1.30563444e-05
3.820992578e-06
3.717954872e-06
4.437512998e-06
4.590625762e-06
4.292450376e-06
3.495562689e-06
0.0009826131079
0.0003614108542
0.0003627076032
0.000342857248
0.0003417690907
0.0003216760748
0.0003238440158
2.602108219e-06
2.588853466e-06
2.389246371e-06
2.254672597e-06
2.229286902e-06
2.686042928e-06
2.65073851e-06
4.380448888e-06
4.53776911e-06
5.449672643e-06
5.190670598e-06
5.190798706e-06
4.275608672e-06
6.113319238e-06
6.554324907e-06
6.330029182e-06
5.448401963e-06
5.165141709e-06
7.911170467e-06
7.162346337e-06
7.76087331e-06
5.184471382e-06
8.641182969e-06
9.878941487e-06
9.705117454e-06
2.333898756e-05
2.378329644e-05
2.581864261e-05
2.204987637e-05
1.702269163e-05
1.263398626e-05
2.858309915e-05
2.458257984e-05
2.838835607e-05
3.177242174e-05
0.0001070970558
0.0003020409195
9.148003066e-05
9.812482759e-05
1.082840666e-05
9.137616664e-06
1.102483689e-05
1.44487285e-05
1.048047403e-05
3.192126713e-06
3.138954745e-06
3.764763702e-06
3.844618195e-06
3.542473999e-06
2.878599373e-06
0.001058501243
0.0003588675239
0.0003594995001
0.0003407476816
0.0003435629332
0.0003303973942
0.0003120848287
0.0002981023754
2.208042403e-06
2.18340176e-06
2.255757194e-06
2.207539151e-06
3.722343326e-06
3.802753736e-06
4.565324484e-06
4.420453235e-06
4.284094619e-06
3.535482533e-06
5.21492643e-06
5.480010574e-06
5.205958302e-06
4.562590163e-06
4.396727307e-06
6.606782131e-06
6.125844962e-06
6.355140409e-06
4.276021227e-06
7.404615776e-06
8.222057353e-06
7.909762338e-06
2.063372422e-05
2.576588737e-05
1.171160894e-05
1.650589288e-05
1.348204042e-05
1.188245644e-05
9.942505852e-06
2.618457943e-05
2.296469197e-05
2.267042311e-05
2.751849964e-05
3.12119826e-05
0.0001063600284
0.0001054063562
8.869851379e-05
3.062156705e-05
9.419264772e-05
9.121435274e-06
8.036404674e-06
9.118534064e-06
1.173055737e-05
8.45565427e-06
2.667197092e-06
2.646472847e-06
3.187403839e-06
3.219727014e-06
2.928849416e-06
2.375379168e-06
0.0003224358675
0.0003324460541
0.0003325368058
0.0003380690902
0.0003198288122
0.0003222543814
0.0001126281277
0.0001059456258
0.000308045212
0.0001029412882
0.0001044116394
3.156466951e-06
3.186689775e-06
3.824430613e-06
3.754783028e-06
3.542811105e-06
2.928570306e-06
4.434439904e-06
4.58212393e-06
4.291470203e-06
3.820409175e-06
3.732848772e-06
5.518348674e-06
5.219616819e-06
5.219055448e-06
3.534003661e-06
6.318025519e-06
6.847593968e-06
6.46867843e-06
1.297381186e-05
1.454299412e-05
9.200779446e-06
1.092461645e-05
1.316506971e-05
1.112195955e-05
9.882164723e-06
8.590640148e-06
2.469500859e-05
2.570797161e-05
1.78147072e-05
1.700738752e-05
2.664527266e-05
9.868727157e-05
9.055072625e-05
2.936675425e-05
2.997453164e-05
7.677508868e-06
7.004950936e-06
7.553731614e-06
9.562768272e-06
6.85286506e-06
2.228898952e-06
2.228721033e-06
2.694006432e-06
2.696327568e-06
2.425266746e-06
0.0003292015432
0.0003307572816
0.0003140432337
0.0003166977327
0.0001127388063
0.000113148439
0.0001137055159
0.0001138740313
0.0001034137532
0.0001010087025
9.798448839e-05
9.481599197e-05
9.172835821e-05
9.438815884e-05
2.671995484e-06
2.670363665e-06
3.203743191e-06
3.182603773e-06
2.934780223e-06
2.429446927e-06
3.761034517e-06
3.831597781e-06
3.544684001e-06
3.198692859e-06
3.162440923e-06
4.609860052e-06
4.433911544e-06
4.296738246e-06
2.925881715e-06
5.372433307e-06
5.706084013e-06
5.305920502e-06
1.210083641e-05
1.005678426e-05
1.181065623e-05
8.099414958e-06
9.210577347e-06
1.055926441e-05
9.189942083e-06
8.223301693e-06
7.378970146e-06
2.293953411e-05
2.346894936e-05
1.271921729e-05
1.42086561e-05
1.351441024e-05
2.65221097e-05
3.196678359e-05
3.054228912e-05
2.769039558e-05
2.615327059e-05
2.84513128e-05
2.581801051e-05
6.457946986e-06
6.063474844e-06
6.265848064e-06
7.823634618e-06
5.575962714e-06
2.273800358e-06
2.257962318e-06
0.0003354819294
0.000313109099
0.0001108552893
0.0001113139676
0.0001121658693
0.0001116995409
0.0001025812738
0.0001031691535
0.000104332209
0.0001037604057
9.86744389e-05
9.838195065e-05
8.902963007e-05
8.732878445e-05
3.0095478e-05
3.053966747e-05
3.169800515e-05
3.107026361e-05
2.258662964e-06
2.237653077e-06
2.683773663e-06
2.692925723e-06
2.434627263e-06
3.183165605e-06
3.204180624e-06
2.932838682e-06
2.677973202e-06
2.674496244e-06
3.851385701e-06
3.75714843e-06
3.544974484e-06
2.426031761e-06
4.555687495e-06
4.757109358e-06
4.363367354e-06
1.003642196e-05
8.679074512e-06
9.629488314e-06
7.060947799e-06
7.755715412e-06
8.511528747e-06
7.604027306e-06
6.846208651e-06
6.308586316e-06
2.138193791e-05
1.914137566e-05
1.836724046e-05
9.992749689e-06
1.229521179e-05
1.162812278e-05
1.080351983e-05
2.844263922e-05
2.464502412e-05
2.806120186e-05
2.328004794e-05
2.470274402e-05
5.429176119e-06
5.219711991e-06
5.203457977e-06
6.420869904e-06
4.552717436e-06
9.923540599e-05
0.0001024203743
0.0001103987887
0.0001102616283
0.0001007965291
0.0001012360329
0.0001020921127
0.0001016581164
9.302483953e-05
9.35566931e-05
9.540549712e-05
9.431785745e-05
3.209073697e-05
3.069969824e-05
8.930117995e-05
2.997484322e-05
2.970537965e-05
2.87380956e-05
2.937520231e-05
2.579998695e-05
2.633026546e-05
2.788662632e-05
2.713499672e-05
2.248188039e-06
2.275323686e-06
2.689422856e-06
2.679630948e-06
2.430119915e-06
2.241902034e-06
2.258569982e-06
3.218026169e-06
3.177234202e-06
2.930082557e-06
3.854370554e-06
3.96753631e-06
3.596175078e-06
8.332698874e-06
7.447064768e-06
7.878210329e-06
6.109520356e-06
6.523892954e-06
6.891142931e-06
6.299156774e-06
5.702053795e-06
5.373244789e-06
1.679200423e-05
1.679735081e-05
1.449972441e-05
8.688507868e-06
1.021087495e-05
9.544030625e-06
8.683210835e-06
2.610350081e-05
2.32795192e-05
2.19678345e-05
1.936628279e-05
1.228734509e-05
4.56224644e-06
4.47363683e-06
4.32536406e-06
5.283942697e-06
3.728413397e-06
9.827330464e-05
9.851810048e-05
0.0001002894281
9.891611161e-05
9.117110244e-05
9.159350026e-05
9.259091349e-05
9.212551054e-05
3.09238661e-05
3.092104032e-05
3.092542084e-05
3.08998976e-05
3.189938665e-05
3.167142154e-05
3.107191648e-05
3.128526476e-05
2.790600234e-05
2.780799623e-05
2.717492771e-05
2.559826829e-05
2.628104385e-05
2.652144032e-05
2.5204823e-05
2.626794148e-05
2.13965235e-05
2.229082412e-05
2.511907622e-05
2.377161763e-05
2.269028042e-06
2.241049107e-06
2.689052511e-06
2.682362768e-06
2.425612965e-06
3.254978078e-06
3.310126011e-06
2.969468631e-06
6.924167843e-06
6.360729761e-06
6.464740022e-06
5.255155798e-06
5.483021907e-06
5.600748299e-06
5.223366956e-06
4.750752317e-06
4.562702628e-06
1.424360791e-05
1.349475649e-05
1.152085567e-05
7.502656212e-06
8.487376357e-06
7.85319692e-06
7.01268148e-06
2.554774513e-05
1.806641046e-05
1.726316571e-05
1.670311397e-05
1.003080244e-05
1.222472273e-05
3.832323025e-06
3.820626408e-06
3.598381559e-06
4.358513823e-06
3.061253518e-06
9.69957611e-05
9.066609893e-05
9.077559328e-05
9.051026737e-05
3.015146633e-05
3.01685069e-05
3.033006015e-05
3.021874682e-05
3.093188606e-05
3.078717791e-05
3.045796691e-05
3.068820973e-05
2.693390307e-05
2.675701742e-05
2.644681313e-05
2.655042782e-05
2.758493252e-05
2.720356892e-05
2.6578339e-05
2.685606613e-05
2.449131416e-05
2.673395974e-05
2.363172144e-05
2.273266734e-05
2.100603571e-05
2.529378814e-05
2.186790074e-05
2.51600451e-05
1.786352338e-05
1.903560138e-05
2.418682474e-05
2.04596744e-05
2.247196111e-06
2.261469541e-06
2.744614276e-06
2.76242971e-06
2.455918674e-06
5.757933097e-06
5.412922024e-06
5.318590937e-06
4.49908087e-06
4.604956957e-06
4.567219597e-06
4.334920626e-06
3.959317649e-06
3.864869865e-06
1.176344597e-05
1.089062075e-05
9.207597245e-06
6.443527991e-06
7.060071542e-06
6.475890786e-06
5.687598642e-06
1.284736668e-05
1.435265724e-05
1.440405954e-05
1.347778549e-05
8.80487029e-06
1.0228529e-05
3.21818983e-06
3.253552528e-06
2.99564805e-06
3.602387484e-06
2.519044397e-06
2.771308101e-05
2.848048432e-05
3.030285865e-05
3.040757459e-05
3.016217226e-05
3.018896819e-05
3.028967242e-05
3.02407229e-05
2.603904943e-05
2.602067661e-05
2.61319915e-05
2.604756012e-05
2.697519917e-05
2.686509772e-05
2.630779895e-05
2.659507437e-05
2.376168569e-05
2.314639958e-05
2.225254545e-05
2.229301661e-05
2.375917954e-05
2.323353296e-05
2.246625593e-05
2.280642178e-05
2.127472114e-05
2.196595505e-05
2.072767194e-05
1.995056297e-05
1.649648731e-05
1.256321752e-05
1.947719369e-05
1.962679864e-05
1.637142953e-05
1.757338557e-05
1.923930421e-05
1.852340675e-05
2.311370684e-06
2.305907838e-06
4.791080742e-06
4.592671181e-06
4.385369583e-06
3.837285107e-06
3.865241072e-06
3.735160235e-06
3.600123262e-06
3.300546128e-06
3.267161686e-06
9.726505104e-06
8.82376865e-06
7.39727546e-06
5.509945714e-06
5.876519978e-06
5.350017539e-06
4.630019955e-06
1.024337606e-05
1.26550261e-05
1.146688822e-05
1.190953592e-05
1.091519381e-05
7.652263469e-06
8.550719716e-06
2.701782478e-06
2.764138523e-06
2.495323112e-06
2.982546149e-06
2.64085477e-05
2.613640626e-05
2.640831385e-05
2.62202349e-05
2.608762005e-05
2.616340356e-05
2.634510194e-05
2.625362128e-05
2.239083245e-05
2.233302079e-05
2.235715657e-05
2.231542417e-05
2.397533145e-05
2.358498129e-05
2.249739519e-05
2.281963941e-05
2.258174437e-05
1.830997709e-05
1.848556748e-05
1.825111207e-05
2.036285044e-05
1.973616856e-05
1.883009938e-05
1.924167821e-05
1.866539427e-05
1.931169376e-05
1.913461459e-05
1.882214624e-05
1.420511875e-05
1.259210256e-05
1.017884265e-05
1.557422394e-05
1.553296462e-05
1.340734138e-05
1.422525373e-05
1.52107978e-05
1.481606595e-05
3.988655515e-06
3.887305223e-06
3.622767717e-06
3.262866393e-06
3.24277415e-06
3.062243985e-06
2.991651971e-06
2.751962903e-06
2.757316663e-06
8.050209139e-06
7.173646221e-06
5.97031009e-06
4.695184252e-06
4.894008278e-06
4.42685301e-06
3.781226251e-06
8.99639811e-06
1.057122868e-05
9.207255767e-06
9.853248542e-06
8.867744295e-06
6.599729322e-06
7.142930889e-06
2.267761754e-06
2.34381799e-06
2.472965542e-06
2.387454813e-05
2.346520031e-05
2.302007489e-05
2.317156497e-05
2.248015289e-05
2.259588653e-05
2.288597202e-05
2.273427842e-05
2.003774329e-05
1.995827914e-05
1.988208894e-05
1.990249565e-05
2.30839989e-05
2.059598616e-05
1.992208923e-05
2.009664333e-05
1.12478639e-05
1.443249945e-05
1.594048628e-05
1.53323497e-05
1.801321377e-05
1.740059776e-05
1.642348506e-05
1.688637934e-05
1.814394731e-05
1.850488e-05
1.545362026e-05
1.53075808e-05
1.187449341e-05
1.05681817e-05
9.020705009e-06
1.249723477e-05
1.235950983e-05
1.099504245e-05
1.154887429e-05
1.209831172e-05
1.190384202e-05
3.322082969e-06
3.283775531e-06
2.997626625e-06
2.767553808e-06
2.719456838e-06
2.515857688e-06
2.487262014e-06
2.294969923e-06
2.323860235e-06
6.668342021e-06
5.849282792e-06
4.838068556e-06
3.98957325e-06
4.077622216e-06
3.667891457e-06
3.096604012e-06
7.817758254e-06
8.822293529e-06
7.425366984e-06
8.156315988e-06
7.223781374e-06
5.6578844e-06
5.963360109e-06
2.069419052e-05
2.120854156e-05
2.073928251e-05
2.097243717e-05
2.013471042e-05
2.025091921e-05
2.054967517e-05
2.03890499e-05
2.004266727e-05
2.00007506e-05
1.986730513e-05
1.993692117e-05
1.891667602e-05
1.947763375e-05
1.979379492e-05
1.967126558e-05
1.174390335e-05
9.383991413e-06
1.288241261e-05
1.554820844e-05
1.460824638e-05
1.767965591e-05
1.717470518e-05
1.620390751e-05
1.671363741e-05
1.48652697e-05
1.511620541e-05
1.250635796e-05
1.246519266e-05
9.911253804e-06
8.847014739e-06
7.886396731e-06
1.005804359e-05
9.880710045e-06
9.027176037e-06
9.399459554e-06
9.674163955e-06
9.601110801e-06
2.767933464e-06
2.769451849e-06
2.48377083e-06
2.342667553e-06
2.279832828e-06
5.52753467e-06
4.781422495e-06
3.934290932e-06
3.382171147e-06
3.398732865e-06
3.042502094e-06
2.541967457e-06
6.738454932e-06
7.357065016e-06
6.011170597e-06
6.75462614e-06
5.898074097e-06
4.827412533e-06
4.976143577e-06
2.065155864e-05
2.025134027e-05
2.02081334e-05
2.024139041e-05
2.007775932e-05
2.011037123e-05
2.017124533e-05
2.014020335e-05
1.627489136e-05
1.623565189e-05
1.609039439e-05
1.617260158e-05
1.501425019e-05
1.553512853e-05
1.597896715e-05
1.579777612e-05
9.898126244e-06
8.364056969e-06
1.089713936e-05
1.291054909e-05
1.21854574e-05
1.452689047e-05
1.414251945e-05
1.341814746e-05
1.380189428e-05
1.219347737e-05
1.236133113e-05
1.013849261e-05
1.016136019e-05
8.262392479e-06
7.39097124e-06
6.824651139e-06
8.115202801e-06
7.931136712e-06
7.418658741e-06
7.666244109e-06
7.772042224e-06
7.769588577e-06
2.306943941e-06
2.332567543e-06
4.584578904e-06
3.916883074e-06
3.209007719e-06
2.861813282e-06
2.833802267e-06
2.526169709e-06
5.771423306e-06
6.131333668e-06
4.882315132e-06
5.595899545e-06
4.824996839e-06
4.103173146e-06
4.150689957e-06
1.664862366e-05
1.647123646e-05
1.644392912e-05
1.648009069e-05
1.630652469e-05
1.633638083e-05
1.640055585e-05
1.636553173e-05
1.322144959e-05
1.318707878e-05
1.304711951e-05
1.312972148e-05
1.19841376e-05
1.244391909e-05
1.292335386e-05
1.272384839e-05
8.329443556e-06
7.366282744e-06
9.204179062e-06
1.072921491e-05
1.016844193e-05
1.195228996e-05
1.166292273e-05
1.112298943e-05
1.141228957e-05
1.001178447e-05
1.011754219e-05
8.230611319e-06
8.290597092e-06
6.880884912e-06
6.164308654e-06
5.859739655e-06
6.561364e-06
6.388366998e-06
6.10165708e-06
6.263745418e-06
6.269385849e-06
6.305276541e-06
3.804353783e-06
3.214482886e-06
2.624203706e-06
2.417739833e-06
2.363432612e-06
4.918469712e-06
5.107188304e-06
3.976616829e-06
4.637389453e-06
3.95360064e-06
3.476885974e-06
3.461025485e-06
1.342931351e-05
1.339000393e-05
1.337775506e-05
1.341143215e-05
1.324844835e-05
1.327423442e-05
1.333469045e-05
1.330049412e-05
1.074489794e-05
1.071609455e-05
1.058988864e-05
1.066648637e-05
9.613244415e-06
1.000454477e-05
1.046819523e-05
1.027304628e-05
7.000428619e-06
6.428495484e-06
7.764736659e-06
8.92263852e-06
8.488067077e-06
9.845015283e-06
9.630103793e-06
9.228576931e-06
9.446804856e-06
8.227222423e-06
8.287167028e-06
6.689618006e-06
6.769161028e-06
5.725624468e-06
5.134301915e-06
5.000599527e-06
5.314298103e-06
5.160903424e-06
5.021815074e-06
5.125463211e-06