/*--------------------------------*- C++ -*----------------------------------*\
  =========                 |
  \\      /  F ield         | OpenFOAM: The Open Source CFD Toolbox
   \\    /   O peration     | Website:  https://openfoam.org
    \\  /    A nd           | Version:  8
     \\/     M anipulation  |
\*---------------------------------------------------------------------------*/






FoamFile
{
    version     2.0;
    format      ascii;
    class       volVectorField;
    location    "0";
    object      UDDES;
}
// * * * * * * * * * * * * * * * * * * * * * * * * * * * * * * * * * * * * * //

dimensions      [0 1 -1 0 0 0 0];


internalField   nonuniform List<vector> 
18819
(
( 0.006863482296 -0.001335138222 8.818564675e-05 )
( 0.007251421455 -0.001314150635 9.109141683e-05 )
( 0.00583889056 -0.001042174874 0.0001310955267 )
( 0.006186971441 -0.001018608571 0.0001271442161 )
( 0.007624190766 -0.001279403106 7.801737956e-05 )
( 0.005340921227 -0.00103585131 0.0001346837089 )
( 0.005018594675 -0.000824622286 0.0001120113739 )
( 0.005193291698 -0.0008220932214 0.0001132006437 )
( 0.006534159649 -0.0009956293507 0.0001098280845 )
( 0.00539122941 -0.0008089375333 0.0001087337296 )
( 0.005554789212 -0.0008035042556 0.0001023501318 )
( 0.007885093801 -0.001223609666 5.778744162e-05 )
( 0.004621640779 -0.0008366173133 0.0001119126173 )
( 0.00480864197 -0.0008367283735 0.0001128826989 )
( 0.004908983596 -0.001001760247 0.0001327746722 )
( 0.005359800532 -0.001133091748 0.00013488697 )
( 0.004434687085 -0.0006271579186 4.552531391e-05 )
( 0.004656260367 -0.0006305812276 4.917186743e-05 )
( 0.006903359666 -0.0009825986344 9.615513409e-05 )
( 0.005770637188 -0.0007996236091 9.211194993e-05 )
( 0.005995919928 -0.0008211538079 9.260606748e-05 )
( 0.004838586785 -0.0006222640513 4.65702833e-05 )
( 0.005017629825 -0.0006141902995 4.546287528e-05 )
( 0.008129094727 -0.001166873844 3.531329276e-05 )
( 0.004036520142 -0.0006340902182 5.793874516e-05 )
( 0.004367410205 -0.0008357159677 0.0001084455362 )
( 0.004238426685 -0.0006309276214 5.031342153e-05 )
( 0.004593487363 -0.0009821278509 0.000128243948 )
( 0.005095161498 -0.001139274333 0.0001328327926 )
( 0.004008253105 -0.0004885650123 -8.708383575e-06 )
( 0.004124275409 -0.0004914652673 -7.979650036e-06 )
( 0.004374120384 -0.0005079424591 8.696069926e-07 )
( 0.004243026022 -0.0005004007253 -6.346365808e-06 )
( 0.007186160423 -0.0009370353073 7.167545846e-05 )
( 0.006252856925 -0.0008331113495 9.549382958e-05 )
( 0.006416074 -0.0008293478168 9.645064711e-05 )
( 0.005195418838 -0.0006097970181 5.011496978e-05 )
( 0.005375000648 -0.0006107910303 5.836154014e-05 )
( 0.004471107386 -0.0005099230912 1.393173079e-07 )
( 0.004556226078 -0.0005024595303 3.161526365e-06 )
( 0.004733556416 -0.0004965884145 9.07366848e-06 )
( 0.00465174485 -0.0005047436571 5.32735794e-06 )
( 0.008363108151 -0.001112714177 1.546292697e-05 )
( 0.003606836544 -0.000492220046 1.870419328e-05 )
( 0.00377719989 -0.0006294437917 6.314617349e-05 )
( 0.00372596411 -0.0004952242598 1.41608889e-05 )
( 0.00411226647 -0.0008250297979 0.0001064265307 )
( 0.003927161917 -0.000494954118 1.687858457e-06 )
( 0.00380772585 -0.0004911976284 3.013922651e-06 )
( 0.004254418891 -0.00095325656 0.0001291415392 )
( 0.004789838102 -0.001120304107 0.0001363011397 )
( 0.003713129554 -0.0004018688924 -4.504754179e-05 )
( 0.003772029188 -0.0003872030647 -5.562890146e-05 )
( 0.003983038012 -0.0003922359319 -4.920201172e-05 )
( 0.003902012948 -0.0003950436949 -5.011177927e-05 )
( 0.00746154692 -0.0008888987941 4.044378147e-05 )
( 0.006584599148 -0.0008054075879 8.731316484e-05 )
( 0.006723891478 -0.0007890860434 7.808305236e-05 )
( 0.005572785623 -0.0006136745214 7.469205593e-05 )
( 0.005736640655 -0.0006039474974 8.376999176e-05 )
( 0.004826973658 -0.0004998439108 1.577475268e-05 )
( 0.004908283241 -0.000493381056 2.451409819e-05 )
( 0.005062003154 -0.0004862258793 4.168677697e-05 )
( 0.004989812151 -0.0004945257097 3.283618571e-05 )
( 0.004087733105 -0.0003904761397 -4.515239198e-05 )
( 0.004164997954 -0.0003895857662 -3.881882003e-05 )
( 0.004339809529 -0.0003875322582 -2.626362038e-05 )
( 0.004266771954 -0.000388864195 -3.21710686e-05 )
( 0.008594863117 -0.001061937306 -1.102146507e-05 )
( 0.003458712017 -0.0004904128728 2.727616993e-05 )
( 0.003312169807 -0.0004078698694 -1.224946209e-05 )
( 0.003589216154 -0.0006487237406 8.036731015e-05 )
( 0.003337646602 -0.0004986940185 3.537346856e-05 )
( 0.003365544835 -0.0003900998854 -2.76652554e-05 )
( 0.003772951663 -0.0007876111777 0.0001086905759 )
( 0.003567392938 -0.0003899358271 -4.492533844e-05 )
( 0.003518231679 -0.0004055277386 -3.157099127e-05 )
( 0.004044863395 -0.0009532495751 0.0001330681262 )
( 0.00457066996 -0.001131499303 0.0001334757981 )
( 0.003421012312 -0.0003296184004 -7.425675722e-05 )
( 0.003457065206 -0.000328700291 -7.531177835e-05 )
( 0.003564561252 -0.0003160383785 -7.816626749e-05 )
( 0.003485680791 -0.0003126953961 -8.025806892e-05 )
( 0.003732656827 -0.000306685688 -7.341196761e-05 )
( 0.003697005333 -0.0003073904663 -7.52905471e-05 )
( 0.003619857132 -0.000322995038 -7.801572065e-05 )
( 0.003644028446 -0.000320667139 -7.634542999e-05 )
( 0.007727791555 -0.0008454700583 2.646094117e-06 )
( 0.006891813129 -0.0007624292048 5.953403888e-05 )
( 0.007011963986 -0.0007430856931 4.419476318e-05 )
( 0.005893441848 -0.0005890554748 8.294174768e-05 )
( 0.006063225679 -0.0005729729892 7.532517338e-05 )
( 0.005155484192 -0.0004897561157 5.342047371e-05 )
( 0.005240284372 -0.000484272663 6.44438187e-05 )
( 0.005403106567 -0.0004758169525 7.845308573e-05 )
( 0.005330497399 -0.0004854377476 7.33361303e-05 )
( 0.004435457755 -0.0003860395227 -1.825190884e-05 )
( 0.00451057218 -0.0003848902415 -6.730419955e-06 )
( 0.004667184781 -0.000378824072 1.80240495e-05 )
( 0.004601216875 -0.0003827618493 6.010755897e-06 )
( 0.003791031661 -0.0003165000817 -6.986953667e-05 )
( 0.003826576285 -0.0003174536396 -6.659640349e-05 )
( 0.003911868669 -0.0003063123149 -5.954192238e-05 )
( 0.003877852578 -0.000306791102 -6.202239456e-05 )
( 0.00408170186 -0.0003091101535 -4.340139276e-05 )
( 0.004049635492 -0.0003087063087 -4.651903873e-05 )
( 0.003967466764 -0.0003169953707 -5.40329529e-05 )
( 0.004000682849 -0.000317554106 -5.10685677e-05 )
( 0.008824904449 -0.001004395541 -3.558788012e-05 )
( 0.003151600249 -0.000396784686 -4.326628641e-06 )
( 0.003022455378 -0.0003352483909 -3.635079702e-05 )
( 0.003064313671 -0.0003338425595 -4.123499821e-05 )
( 0.003186407499 -0.0005327478284 6.375504017e-05 )
( 0.003260713303 -0.0005209274241 5.336018876e-05 )
( 0.003302870551 -0.0006186006358 8.81224405e-05 )
( 0.003036575625 -0.000406618783 8.011958016e-06 )
( 0.003164203372 -0.0003216334735 -5.325384336e-05 )
( 0.003123923903 -0.00032243022 -4.859218461e-05 )
( 0.003563814797 -0.0007798504084 0.0001189767281 )
( 0.003360076342 -0.0003212002048 -7.076472684e-05 )
( 0.003322277684 -0.0003215037577 -6.808066973e-05 )
( 0.003228501417 -0.0003314991773 -5.957628309e-05 )
( 0.003266310552 -0.0003322613193 -6.280652451e-05 )
( 0.003101897426 -0.0002495458757 -9.835988749e-05 )
( 0.003103236435 -0.0002395233896 -0.0001015130983 )
( 0.003204995533 -0.0002320015919 -0.000102210819 )
( 0.003138963599 -0.0002353826858 -0.0001026171376 )
( 0.003409235971 -0.0002275159932 -9.351183689e-05 )
( 0.003371618455 -0.0002326836693 -9.533604316e-05 )
( 0.003283329541 -0.0002412994218 -9.783370479e-05 )
( 0.003322737524 -0.000235078187 -9.691293963e-05 )
( 0.007985352539 -0.0007932177978 -3.148418182e-05 )
( 0.007171340287 -0.0007218373939 2.242561823e-05 )
( 0.00730960723 -0.0007110967999 5.309728294e-06 )
( 0.006217692047 -0.0005530258059 5.903092824e-05 )
( 0.006367165595 -0.000534955936 4.260679634e-05 )
( 0.005489801057 -0.0004740277654 7.976816414e-05 )
( 0.005568482913 -0.0004632075434 7.946950791e-05 )
( 0.005737034138 -0.0004479862691 7.04146878e-05 )
( 0.005663324147 -0.0004601939872 7.558308425e-05 )
( 0.004767422564 -0.0003783895809 3.520116661e-05 )
( 0.004838106222 -0.0003762993729 4.887052637e-05 )
( 0.005004576873 -0.0003692127357 7.009677211e-05 )
( 0.004932721611 -0.0003737712977 6.256776396e-05 )
( 0.004133879207 -0.0003183923836 -3.768878378e-05 )
( 0.00416648481 -0.0003184248053 -3.364306031e-05 )
( 0.004247673787 -0.0003074479464 -2.080794729e-05 )
( 0.004214743152 -0.0003080806928 -2.63348029e-05 )
( 0.004406862427 -0.0003015281982 7.174862731e-06 )
( 0.004375242628 -0.0003024555044 1.182684173e-06 )
( 0.004298072774 -0.0003142850474 -1.263367449e-05 )
( 0.004327834584 -0.0003128429234 -7.612254194e-06 )
( 0.003459370229 -0.0002360009385 -9.021444566e-05 )
( 0.003497341182 -0.0002327607508 -8.67036797e-05 )
( 0.003580916673 -0.0002297284955 -7.892946451e-05 )
( 0.003544766223 -0.0002332215081 -8.255611465e-05 )
( 0.003745127469 -0.0002359262435 -6.008781202e-05 )
( 0.003709981451 -0.0002377198398 -6.509471859e-05 )
( 0.003628893523 -0.0002392978931 -7.392567932e-05 )
( 0.003664665855 -0.0002366133267 -6.954109267e-05 )
( 0.009050368331 -0.0009504085756 -5.540397251e-05 )
( 0.002951967064 -0.0003284237755 -2.840992056e-05 )
( 0.002908130176 -0.0003302132536 -2.431190842e-05 )
( 0.002717251889 -0.0002544023155 -6.240313087e-05 )
( 0.002761989599 -0.0002486389712 -6.852568913e-05 )
( 0.002813247265 -0.0004179638927 3.44364089e-05 )
( 0.003035802394 -0.0005178198335 7.187228766e-05 )
( 0.002938845893 -0.0004150801105 2.222695366e-05 )
( 0.003093999811 -0.000613762415 0.0001064257158 )
( 0.002962264698 -0.000517182576 7.937155897e-05 )
( 0.002793871798 -0.0003474557889 -1.08960221e-05 )
( 0.002840957139 -0.0003450332442 -1.550317211e-05 )
( 0.002860369626 -0.0002435062779 -8.056515071e-05 )
( 0.002817576053 -0.0002477929811 -7.501730579e-05 )
( 0.003049749648 -0.0002427557047 -9.619438788e-05 )
( 0.003008738393 -0.0002471086627 -9.392682114e-05 )
( 0.002915716497 -0.0002515141678 -8.617382264e-05 )
( 0.002956965473 -0.000247470045 -8.989117487e-05 )
( 0.002800050424 -0.0001905918616 -0.0001122427711 )
( 0.002836713102 -0.0001896884787 -0.0001122493486 )
( 0.00292277243 -0.0001827953238 -0.0001114397819 )
( 0.002849675715 -0.00017902744 -0.0001146586292 )
( 0.003090362065 -0.0001761069871 -0.0001061052899 )
( 0.003057040274 -0.0001750261727 -0.0001076171757 )
( 0.00297296932 -0.0001809123933 -0.000110260371 )
( 0.00300856051 -0.0001805357751 -0.0001091550075 )
( 0.008231066167 -0.0007444894291 -5.902489647e-05 )
( 0.007452904712 -0.0006799377152 -1.406054071e-05 )
( 0.007564227097 -0.0006589652621 -2.626364585e-05 )
( 0.006518220063 -0.0005224767956 2.910750482e-05 )
( 0.006667878944 -0.0005082243588 1.426494055e-05 )
( 0.005821816623 -0.0004439669428 6.112660049e-05 )
( 0.005890925881 -0.0004325337068 5.437160871e-05 )
( 0.006041800138 -0.0004206504673 4.106515553e-05 )
( 0.005973611027 -0.0004304856993 4.641162741e-05 )
( 0.00509479316 -0.0003632342268 7.358377479e-05 )
( 0.00517027406 -0.0003583079088 7.365922647e-05 )
( 0.005333183333 -0.0003475729609 6.608122203e-05 )
( 0.005262403749 -0.0003522469488 7.0986629e-05 )
( 0.004459244665 -0.0003096383589 1.758964208e-05 )
( 0.004490454216 -0.0003089527891 2.432324072e-05 )
( 0.004568705335 -0.0002982913284 4.097548299e-05 )
( 0.004537413362 -0.0002988467168 3.472890239e-05 )
( 0.00473095011 -0.0002908941242 6.278818182e-05 )
( 0.004699355923 -0.0002923692227 5.988868361e-05 )
( 0.004620859865 -0.0003055208945 4.982397149e-05 )
( 0.004651918076 -0.0003037802817 5.390427395e-05 )
( 0.00379166659 -0.0002446791041 -5.441864778e-05 )
( 0.00382703729 -0.000240959489 -4.906017784e-05 )
( 0.003906405997 -0.0002346355031 -3.666341945e-05 )
( 0.003871278837 -0.000240030422 -4.233739674e-05 )
( 0.00406120019 -0.0002291930577 -8.704819265e-06 )
( 0.004026876763 -0.0002328859991 -1.579127638e-05 )
( 0.003949553706 -0.0002399339428 -2.972210495e-05 )
( 0.003983240109 -0.0002345379035 -2.389451947e-05 )
( 0.003138659988 -0.0001768422517 -0.0001032540749 )
( 0.003172615776 -0.0001786513603 -0.0001009206753 )
( 0.003252053633 -0.0001786728972 -9.356618102e-05 )
( 0.003219472244 -0.0001761448366 -9.655985195e-05 )
( 0.003409994068 -0.0001862543868 -7.472603465e-05 )
( 0.003377749119 -0.0001835936273 -7.844212814e-05 )
( 0.003298792057 -0.0001820648176 -8.753137809e-05 )
( 0.003332033521 -0.0001844248327 -8.410829469e-05 )
( 0.002656513592 -0.0002488077153 -5.605274055e-05 )
( 0.002609138377 -0.0002560886787 -5.046572187e-05 )
( 0.00243119942 -0.000194915483 -8.177504787e-05 )
( 0.002472383669 -0.000194584878 -8.718182653e-05 )
( 0.002543781884 -0.0003491675598 1.416559917e-05 )
( 0.002672116272 -0.0003982947092 4.09127897e-05 )
( 0.002593191108 -0.0003502769396 9.823272194e-06 )
( 0.002714436501 -0.0003405491007 -2.201161124e-06 )
( 0.002666998655 -0.0003415659303 2.238158231e-06 )
( 0.002757767681 -0.0005186826456 9.940036398e-05 )
( 0.002864479553 -0.0005210036179 9.190794663e-05 )
( 0.00257007638 -0.0003940032911 5.225580026e-05 )
( 0.002494941 -0.0002692936687 -3.57857607e-05 )
( 0.002546790522 -0.0002601895249 -4.336619531e-05 )
( 0.002566334326 -0.0001927943231 -9.828081238e-05 )
( 0.00252781529 -0.0001912534499 -9.380927077e-05 )
( 0.002747885417 -0.0001914446621 -0.0001109641307 )
( 0.002711058827 -0.0001906958059 -0.0001098891589 )
( 0.002620820655 -0.0001935819746 -0.0001038938353 )
( 0.002658689395 -0.0001944855903 -0.0001064466196 )
( 0.002509707585 -0.0001489027491 -0.0001123211186 )
( 0.002549075987 -0.0001425773953 -0.0001124098126 )
( 0.002629598137 -0.0001369335223 -0.0001115652267 )
( 0.00259219599 -0.0001426466624 -0.0001122604663 )
( 0.002785182092 -0.0001312719687 -0.0001074269676 )
( 0.002749859355 -0.0001351864048 -0.0001083032257 )
( 0.002671910916 -0.0001395935105 -0.0001103418399 )
( 0.002709182212 -0.0001337621943 -0.0001093123792 )
( 0.007710199803 -0.0006331434124 -4.103213359e-05 )
( 0.007821292616 -0.0006186895771 -4.999922749e-05 )
( 0.006796243135 -0.0004880786291 2.923959528e-06 )
( 0.006924080662 -0.0004663424625 -5.444853741e-06 )
( 0.006119379774 -0.0004187107552 3.496586942e-05 )
( 0.006182793528 -0.0004063055385 2.850539204e-05 )
( 0.006328325719 -0.0003930421371 1.441874701e-05 )
( 0.006265857723 -0.0004048748524 2.056360063e-05 )
( 0.005419364665 -0.0003420966968 5.840671656e-05 )
( 0.005484092981 -0.0003392405051 5.287090244e-05 )
( 0.005629073828 -0.0003317959781 4.201200863e-05 )
( 0.005567595828 -0.0003353814827 4.644265573e-05 )
( 0.004783590324 -0.0002954668307 6.622515502e-05 )
( 0.004815054592 -0.0002931410854 6.787289749e-05 )
( 0.004891302437 -0.0002803319076 6.841486174e-05 )
( 0.004860864021 -0.0002816337219 6.851418584e-05 )
( 0.005047880579 -0.0002728752734 6.27908521e-05 )
( 0.005018116441 -0.000274013204 6.479953299e-05 )
( 0.004942608997 -0.0002861882676 6.759990356e-05 )
( 0.004974009935 -0.0002849743469 6.633068551e-05 )
( 0.004105960019 -0.0002357651247 6.62622142e-07 )
( 0.004140312783 -0.0002315012389 8.516834896e-06 )
( 0.004217398819 -0.0002260412148 2.55134928e-05 )
( 0.004183456302 -0.0002304188529 1.791588511e-05 )
( 0.004372294992 -0.0002183370379 5.005009734e-05 )
( 0.004338321276 -0.0002238490852 4.545319825e-05 )
( 0.004261934664 -0.0002317516628 3.356154048e-05 )
( 0.004295831081 -0.0002264229115 3.975335858e-05 )
( 0.003455874044 -0.0001889824198 -6.82207974e-05 )
( 0.003489305498 -0.0001899734052 -6.346164446e-05 )
( 0.003564908635 -0.0001858450996 -5.171732846e-05 )
( 0.003532674164 -0.0001854937 -5.65690425e-05 )
( 0.00371547509 -0.0001802752377 -2.444223355e-05 )
( 0.003684475552 -0.0001794810087 -3.076511712e-05 )
( 0.003608727362 -0.0001841157355 -4.465566235e-05 )
( 0.003640521318 -0.000183618351 -3.9391467e-05 )
( 0.002825562842 -0.0001358285954 -0.0001061413859 )
( 0.002861464163 -0.0001319613657 -0.0001040325369 )
( 0.00293650548 -0.0001340698072 -9.679291543e-05 )
( 0.002901704982 -0.0001359476882 -0.000100963247 )
( 0.003088065423 -0.0001417034655 -7.926377293e-05 )
( 0.003052902641 -0.0001435759041 -8.358333434e-05 )
( 0.002976821968 -0.0001410113618 -9.256507474e-05 )
( 0.003012906527 -0.0001392955164 -8.806806727e-05 )
( 0.002372087678 -0.0001966994168 -7.444141374e-05 )
( 0.002329344163 -0.0001978052605 -6.987719098e-05 )
( 0.002159863478 -0.0001538151846 -8.546225581e-05 )
( 0.00220367359 -0.0001489509305 -9.168944962e-05 )
( 0.002461349824 -0.0003358641407 2.136699186e-05 )
( 0.002256914508 -0.0002758681076 -5.728983069e-06 )
( 0.002412261209 -0.0003295260831 2.540663081e-05 )
( 0.00230958988 -0.0002712243586 -1.2741305e-05 )
( 0.002428245265 -0.0002648508816 -2.804350152e-05 )
( 0.00237657153 -0.000271280267 -2.010960998e-05 )
( 0.002322834451 -0.0003846004547 6.916701386e-05 )
( 0.002443799051 -0.0003856195835 6.109665992e-05 )
( 0.00228784862 -0.0003185056557 3.579319673e-05 )
( 0.002337138169 -0.0003236412595 3.173311052e-05 )
( 0.00222034147 -0.0002099287085 -5.41004265e-05 )
( 0.002266876865 -0.0002066893503 -6.058805229e-05 )
( 0.002292534569 -0.0001480833453 -0.0001017297618 )
( 0.002251317026 -0.000151702523 -9.725490236e-05 )
( 0.002464802703 -0.000145942744 -0.0001117752618 )
( 0.002425448038 -0.0001502342784 -0.0001107428252 )
( 0.002339123748 -0.0001527972345 -0.0001055688117 )
( 0.002380173421 -0.0001484325185 -0.0001084524483 )
( 0.002205229597 -0.0001089629077 -0.0001059652932 )
( 0.002243308816 -0.0001055506582 -0.0001060483191 )
( 0.002317516832 -0.000101060803 -0.0001060781578 )
( 0.002281447407 -0.0001040194184 -0.0001063616583 )
( 0.002458939794 -9.603999933e-05 -0.0001046382386 )
( 0.002425461309 -9.785598377e-05 -0.0001047145706 )
( 0.002354466124 -0.0001009100888 -0.0001054959212 )
( 0.002389597008 -9.793387289e-05 -0.0001046881225 )
( 0.007058644667 -0.0004505213874 -1.224989592e-05 )
( 0.007192667574 -0.000437034847 -2.03679283e-05 )
( 0.006393463816 -0.000386572734 8.576689652e-06 )
( 0.006454833783 -0.0003750449396 3.418689175e-06 )
( 0.006589317229 -0.0003590288397 -2.417276846e-06 )
( 0.00652871374 -0.0003704552655 -1.083055395e-06 )
( 0.005709349178 -0.0003277118085 3.463505345e-05 )
( 0.005769904703 -0.0003219275968 2.648280861e-05 )
( 0.005903821904 -0.0003079721064 6.872661288e-06 )
( 0.005845668726 -0.0003149190743 1.58242583e-05 )
( 0.005096266046 -0.000279723783 5.886687359e-05 )
( 0.005124693736 -0.0002792113228 5.682955089e-05 )
( 0.005194824655 -0.0002692803391 5.138217966e-05 )
( 0.005167053081 -0.0002697004529 5.320497075e-05 )
( 0.005336633883 -0.0002645437489 3.988720346e-05 )
( 0.005310224369 -0.0002654042328 4.221324343e-05 )
( 0.00524216285 -0.0002764483797 4.794671622e-05 )
( 0.005269501824 -0.0002755934547 4.562543836e-05 )
( 0.004416059703 -0.0002220712777 5.368253187e-05 )
( 0.004450330045 -0.0002155625843 5.698538371e-05 )
( 0.004523716867 -0.0002088498586 6.031760131e-05 )
( 0.004491497297 -0.0002133739908 5.878731827e-05 )
( 0.00467107771 -0.0002048986935 5.866520587e-05 )
( 0.004640330095 -0.0002086946333 5.98923798e-05 )
( 0.00456742011 -0.0002141548466 6.075565761e-05 )
( 0.004599933978 -0.0002098930418 6.077369108e-05 )
( 0.003759861458 -0.0001809511887 -1.440440428e-05 )
( 0.003791429568 -0.0001814819116 -7.346169696e-06 )
( 0.003865706502 -0.0001783916669 9.229953321e-06 )
( 0.00383500522 -0.000177528942 2.558814231e-06 )
( 0.004012550693 -0.0001713142992 3.555286457e-05 )
( 0.003982948605 -0.0001718536951 3.100687536e-05 )
( 0.003909578081 -0.0001778144215 1.817409429e-05 )
( 0.003940412309 -0.0001770924719 2.363635031e-05 )
( 0.003128334414 -0.0001473406155 -7.45387224e-05 )
( 0.00316408975 -0.0001437822066 -6.943158951e-05 )
( 0.003237628378 -0.0001411836274 -5.845808482e-05 )
( 0.003203249071 -0.0001453782606 -6.399078848e-05 )
( 0.003382788505 -0.0001369422826 -3.138443208e-05 )
( 0.003349139355 -0.0001404023642 -3.888131687e-05 )
( 0.003276381176 -0.0001439723274 -5.254192729e-05 )
( 0.003310986096 -0.0001389323734 -4.620831169e-05 )
( 0.00249476009 -9.755911015e-05 -0.0001041125142 )
( 0.002529326826 -9.632128786e-05 -0.0001026353857 )
( 0.002599275904 -9.862439038e-05 -9.650012362e-05 )
( 0.00256491988 -9.795625374e-05 -0.0001000827906 )
( 0.002742068144 -0.0001049577695 -8.05166128e-05 )
( 0.002706880216 -0.0001046415127 -8.449202869e-05 )
( 0.002635275712 -0.0001019592746 -9.276640048e-05 )
( 0.002670549555 -0.0001023642253 -8.867523866e-05 )
( 0.002109483117 -0.0001504086104 -7.888260006e-05 )
( 0.002063682303 -0.0001571568137 -7.219680992e-05 )
( 0.001879756339 -0.0001138191583 -8.157592674e-05 )
( 0.001922058174 -0.0001119629887 -8.80306834e-05 )
( 0.00218634936 -0.0002620248124 1.410530331e-06 )
( 0.001992356731 -0.0002182233147 -2.11362858e-05 )
( 0.002136463765 -0.0002631188836 7.219983672e-06 )
( 0.002055122983 -0.0002214387205 -2.541884169e-05 )
( 0.002153919078 -0.0002139379503 -4.396463191e-05 )
( 0.002106565284 -0.0002145496401 -3.694721454e-05 )
( 0.002031378448 -0.000306201342 5.130940553e-05 )
( 0.002094003605 -0.0003078619775 4.954193719e-05 )
( 0.00221657264 -0.0003122862836 4.113714385e-05 )
( 0.002170732012 -0.0003095076536 4.477405673e-05 )
( 0.002019182313 -0.0002510911436 1.894662455e-05 )
( 0.002069255337 -0.0002506097662 1.353692096e-05 )
( 0.001960146474 -0.0001677033579 -5.619341391e-05 )
( 0.002010194119 -0.0001584771817 -6.435733667e-05 )
( 0.00200472842 -0.0001112817263 -9.684749966e-05 )
( 0.001964733936 -0.0001125229392 -9.315749048e-05 )
( 0.002165219979 -0.0001087874261 -0.0001054246241 )
( 0.002126599196 -0.0001109666046 -0.0001042734075 )
( 0.002046299167 -0.0001129395459 -9.983583004e-05 )
( 0.002086143941 -0.0001108890501 -0.0001024466474 )
( 0.001887320774 -7.582374383e-05 -9.639636119e-05 )
( 0.001922330586 -7.35488502e-05 -9.688894352e-05 )
( 0.001989759272 -7.014816219e-05 -9.785260045e-05 )
( 0.001956922701 -7.204534631e-05 -9.733228217e-05 )
( 0.002116399584 -6.610021228e-05 -9.873027011e-05 )
( 0.002086040331 -6.720237434e-05 -9.828214388e-05 )
( 0.00202277326 -6.949934323e-05 -9.771396435e-05 )
( 0.002054426586 -6.775481597e-05 -9.798155224e-05 )
( 0.006663049106 -0.0003564412473 -3.870478849e-06 )
( 0.006725050975 -0.0003465971386 -5.68800715e-06 )
( 0.006857700646 -0.0003359622788 -1.38370433e-05 )
( 0.006799446419 -0.0003443009628 -9.120044524e-06 )
( 0.005979797803 -0.0003002763551 -2.170204425e-06 )
( 0.006036353298 -0.0002931444906 -1.058137332e-05 )
( 0.006168605294 -0.0002793871681 -1.882396646e-05 )
( 0.006112019066 -0.0002852845937 -1.66591235e-05 )
( 0.005382373929 -0.0002712209243 3.485896013e-05 )
( 0.005410295445 -0.000270057295 3.097556328e-05 )
( 0.00547701586 -0.0002574551327 1.922916454e-05 )
( 0.005450703204 -0.0002593560203 2.393879731e-05 )
( 0.005608433858 -0.0002448667074 -4.259438356e-06 )
( 0.005583777092 -0.000247590564 -1.758280632e-09 )
( 0.005520349368 -0.0002622568863 1.23462687e-05 )
( 0.005545505323 -0.0002599136787 8.059423635e-06 )
( 0.00471206475 -0.0002115501702 5.59929249e-05 )
( 0.004743316676 -0.0002080191334 5.36328298e-05 )
( 0.004813164473 -0.0002041363914 4.780375093e-05 )
( 0.004781956784 -0.0002078156103 5.073050124e-05 )
( 0.004952864256 -0.0002013283665 3.305705104e-05 )
( 0.004922773689 -0.0002049641043 3.721726898e-05 )
( 0.004853312392 -0.0002100593993 4.475349851e-05 )
( 0.004884765483 -0.0002060349361 4.096464181e-05 )
( 0.004054954741 -0.0001688451448 4.063837332e-05 )
( 0.004085345659 -0.0001678180124 4.464294398e-05 )
( 0.00415506959 -0.0001629359613 5.105819582e-05 )
( 0.004126113839 -0.0001626946032 4.825821816e-05 )
( 0.004294064362 -0.0001603217388 5.267541928e-05 )
( 0.004265433177 -0.0001589020249 5.389075523e-05 )
( 0.004196128342 -0.0001621686824 5.32688864e-05 )
( 0.004226084799 -0.0001625613222 5.388776481e-05 )
( 0.003421101486 -0.0001410062105 -2.303569636e-05 )
( 0.003455446567 -0.0001370419341 -1.512182462e-05 )
( 0.003526590765 -0.0001356866123 8.326239822e-07 )
( 0.003493268741 -0.0001390848774 -6.819106602e-06 )
( 0.003665623488 -0.0001293938985 2.771942673e-05 )
( 0.003633870976 -0.0001342573523 2.153660716e-05 )
( 0.003564149607 -0.0001388295495 8.076295671e-06 )
( 0.003597507486 -0.0001338483271 1.490271552e-05 )
( 0.002779326634 -0.0001080837828 -7.63056014e-05 )
( 0.002815071028 -0.0001071278384 -7.162641123e-05 )
( 0.002885476453 -0.0001055086177 -6.148598914e-05 )
( 0.002851051977 -0.0001070346188 -6.677649799e-05 )
( 0.003022978315 -0.0001021809949 -3.523199121e-05 )
( 0.002989663277 -0.0001034084271 -4.276225445e-05 )
( 0.002920801984 -0.0001058565831 -5.585607505e-05 )
( 0.002954927506 -0.0001037429465 -4.946879926e-05 )
( 0.002147854539 -6.618022599e-05 -9.851207142e-05 )
( 0.002179317642 -6.575926818e-05 -9.766082076e-05 )
( 0.002242679941 -6.768851017e-05 -9.318798402e-05 )
( 0.002211203333 -6.686813867e-05 -9.591894195e-05 )
( 0.002374410629 -7.305754843e-05 -7.946619735e-05 )
( 0.00234111771 -7.196536899e-05 -8.278129098e-05 )
( 0.002275433391 -6.986357766e-05 -8.99345323e-05 )
( 0.002307884395 -7.055651076e-05 -8.642015746e-05 )
( 0.001835145638 -0.0001128145377 -7.514790195e-05 )
( 0.001790615497 -0.0001166715374 -6.863944873e-05 )
( 0.001590969041 -8.051680925e-05 -7.398449816e-05 )
( 0.001629555132 -7.960670337e-05 -7.967885904e-05 )
( 0.001923966222 -0.0002143501042 -1.242675899e-05 )
( 0.0017606396 -0.0001814176794 -2.276488158e-05 )
( 0.001877659932 -0.0002094622614 -6.942637356e-06 )
( 0.001816865988 -0.0001756911079 -2.949441841e-05 )
( 0.001903161174 -0.0001666243043 -4.815074135e-05 )
( 0.001867434941 -0.0001760998275 -3.815232049e-05 )
( 0.001773301745 -0.0002368502319 3.490049858e-05 )
( 0.001830462716 -0.0002307494869 3.269511944e-05 )
( 0.001952797873 -0.0002378097561 2.469475294e-05 )
( 0.001908044564 -0.0002405982377 2.921351188e-05 )
( 0.001766431727 -0.0001991295285 5.660526313e-06 )
( 0.001813617069 -0.0002049323812 3.881567068e-07 )
( 0.001694555394 -0.0001251281647 -5.342555232e-05 )
( 0.00174267171 -0.0001192267664 -6.098374433e-05 )
( 0.001704944531 -7.879035547e-05 -8.757161413e-05 )
( 0.00166807638 -7.964557153e-05 -8.439666271e-05 )
( 0.00185104867 -7.646202721e-05 -9.582222992e-05 )
( 0.00181548018 -7.777107385e-05 -9.44982894e-05 )
( 0.001742222346 -7.937756163e-05 -9.033521928e-05 )
( 0.001778720412 -7.834721328e-05 -9.248807328e-05 )
( 0.001573125483 -5.078357572e-05 -8.553310181e-05 )
( 0.001604385558 -4.896079554e-05 -8.60812579e-05 )
( 0.001664554235 -4.638093378e-05 -8.763809456e-05 )
( 0.001635110937 -4.776111746e-05 -8.686958608e-05 )
( 0.001775993966 -4.346958667e-05 -8.981371502e-05 )
( 0.001749545801 -4.448622713e-05 -8.946700837e-05 )
( 0.001693610917 -4.581506801e-05 -8.822393283e-05 )
( 0.001721706009 -4.479040217e-05 -8.867294673e-05 )
( 0.00624117488 -0.0002734569425 -2.014990059e-05 )
( 0.006297622342 -0.0002682541963 -2.108655826e-05 )
( 0.006423004903 -0.0002599811123 -2.567119736e-05 )
( 0.006368176546 -0.0002633660042 -2.283882714e-05 )
( 0.005651284475 -0.0002481463889 -1.078818968e-05 )
( 0.005676178262 -0.0002453858615 -1.557717587e-05 )
( 0.005737992004 -0.0002300349734 -2.568724813e-05 )
( 0.005713067017 -0.0002328943228 -2.215231325e-05 )
( 0.005866279826 -0.0002189564548 -3.487902723e-05 )
( 0.005841852631 -0.0002207190555 -3.410278441e-05 )
( 0.005780158099 -0.0002336687758 -3.021053271e-05 )
( 0.005805087276 -0.0002314132726 -3.213189848e-05 )
( 0.004992026836 -0.0002066769375 2.743606092e-05 )
( 0.005023354199 -0.0002027619194 2.144003338e-05 )
( 0.005092104431 -0.0001966991549 7.572345567e-06 )
( 0.005062537268 -0.0002010001626 1.419750424e-05 )
( 0.005220284685 -0.0001864873338 -1.932006853e-05 )
( 0.005191532895 -0.0001922923984 -1.267409425e-05 )
( 0.005127408076 -0.0002007791336 8.299819001e-07 )
( 0.005156889092 -0.0001954899635 -5.565031643e-06 )
( 0.00433438411 -0.0001610960753 5.011561734e-05 )
( 0.004363101441 -0.0001621964766 4.783775512e-05 )
( 0.00443020137 -0.0001600358373 4.150671157e-05 )
( 0.004402467981 -0.0001591996406 4.426805754e-05 )
( 0.004565564916 -0.0001574706257 2.300782398e-05 )
( 0.004538350739 -0.0001566832216 2.782376032e-05 )
( 0.004470563028 -0.0001598587114 3.71878632e-05 )
( 0.004499068018 -0.000160117037 3.330193067e-05 )
( 0.003701416776 -0.0001314286346 3.341536285e-05 )
( 0.003733295714 -0.0001260651916 3.852756709e-05 )
( 0.003799315309 -0.0001225581509 4.681554492e-05 )
( 0.00376840774 -0.0001266778127 4.317162893e-05 )
( 0.003931080922 -0.0001203784122 4.970272494e-05 )
( 0.003900189418 -0.0001231907809 5.095770393e-05 )
( 0.003834127914 -0.0001253834344 4.951031588e-05 )
( 0.003865533276 -0.0001212532588 5.086869351e-05 )
( 0.003057786264 -0.0001036064932 -2.747836879e-05 )
( 0.00309152808 -0.0001020110285 -1.995458297e-05 )
( 0.003158738371 -0.0001012739594 -5.097042049e-06 )
( 0.003125872463 -0.0001023530494 -1.246289867e-05 )
( 0.003289008513 -9.665375546e-05 2.239384958e-05 )
( 0.003258007346 -9.895840776e-05 1.559539487e-05 )
( 0.003192760982 -0.0001020889322 1.912266498e-06 )
( 0.003225255525 -9.973419947e-05 8.720220649e-06 )
( 0.002408771077 -7.50470208e-05 -7.565973647e-05 )
( 0.002442408586 -7.490818098e-05 -7.159305824e-05 )
( 0.00250838534 -7.432928396e-05 -6.220408977e-05 )
( 0.002475891262 -7.498619379e-05 -6.697200297e-05 )
( 0.002635950455 -7.223058492e-05 -3.718061998e-05 )
( 0.002604749054 -7.290544454e-05 -4.41520715e-05 )
( 0.002540966263 -7.454346633e-05 -5.664499258e-05 )
( 0.002572759986 -7.314082177e-05 -5.088189937e-05 )
( 0.001803149353 -4.328823707e-05 -9.001053695e-05 )
( 0.001830583904 -4.278975757e-05 -8.941192209e-05 )
( 0.001886002952 -4.411003465e-05 -8.622258611e-05 )
( 0.001858393196 -4.353887562e-05 -8.848970901e-05 )
( 0.002003498841 -4.838001769e-05 -7.494222518e-05 )
( 0.00197367114 -4.756907583e-05 -7.801235915e-05 )
( 0.001914799213 -4.554164479e-05 -8.379895735e-05 )
( 0.001943897456 -4.621733387e-05 -8.078232349e-05 )
( 0.001550994813 -8.033910126e-05 -6.802880671e-05 )
( 0.001510222442 -8.26791802e-05 -6.219994975e-05 )
( 0.001309077139 -5.517605314e-05 -6.524076161e-05 )
( 0.001343476819 -5.456847794e-05 -6.995395961e-05 )
( 0.001688004937 -0.0001718397107 -1.774615885e-05 )
( 0.001489939401 -0.0001376282744 -2.66138195e-05 )