/*--------------------------------*- C++ -*----------------------------------*\
  =========                 |
  \\      /  F ield         | OpenFOAM: The Open Source CFD Toolbox
   \\    /   O peration     | Website:  https://openfoam.org
    \\  /    A nd           | Version:  8
     \\/     M anipulation  |
\*---------------------------------------------------------------------------*/






FoamFile
{
    version     2.0;
    format      ascii;
    class       volScalarField;
    location    "0";
    object      V;
}
// * * * * * * * * * * * * * * * * * * * * * * * * * * * * * * * * * * * * * //

dimensions      [0 3 0 0 0 0 0];


internalField   nonuniform List<scalar> 
18819
(
0.0008861758324
0.0009035661755
0.0008373026898
0.0008588974221
0.000920290625
0.0008281863263
0.0002998428314
0.0003052625109
0.0008783009357
0.0003104129107
0.0003151348426
0.0009349688214
0.0002789691854
0.0002911873987
0.0002862643232
0.000305933888
0.0002806936272
0.0002864413429
0.0008944592673
0.0003191759442
0.0003230102794
0.0002914379978
0.0002959265209
0.0009471928679
0.0002717594197
0.0002956931796
0.0002745858773
0.0002896042932
0.0002995622277
9.844074502e-05
0.0001000145881
0.0001017853719
0.0001003655353
0.0009072248411
0.0003259966604
0.0003289870184
0.0002998725767
0.0003032639641
0.0001021949392
0.0001034647224
0.0001049492018
0.0001038189985
0.0009569655544
9.545986696e-05
0.0002688544744
9.707690138e-05
0.0002782481848
9.842420051e-05
9.679383914e-05
0.0002835313296
0.0002948462539
9.01753533e-05
9.089103799e-05
9.24878596e-05
9.174631181e-05
0.0009169960399
0.0003311167533
0.0003333967914
0.0003061913459
0.0003086397606
0.000105226309
0.0001062228461
0.0001072966361
0.0001064234449
9.329431585e-05
9.397407879e-05
9.527186081e-05
9.468662721e-05
0.000964543677
9.588213538e-05
8.745442118e-05
0.0002652668321
9.42369695e-05
8.799816211e-05
0.0002714562491
8.936197881e-05
8.874290425e-05
0.000277814111
0.0002893009561
2.993690723e-05
3.02787463e-05
3.05238415e-05
3.018711758e-05
3.100479006e-05
3.068792884e-05
3.043631602e-05
3.076482738e-05
0.0009243140251
0.0003348835217
0.0003365989616
0.0003107503883
0.0003124865835
0.0001074292275
0.0001081903917
0.000108932642
0.0001082714491
9.588103166e-05
9.636968876e-05
9.728240135e-05
9.688124383e-05
3.092708662e-05
3.123041144e-05
3.144522649e-05
3.115701036e-05
3.182209477e-05
3.156565323e-05
3.136810018e-05
3.164059642e-05
0.0009702793472
8.673255378e-05
2.903017452e-05
2.937078613e-05
9.269840076e-05
9.437308205e-05
0.0002577057976
8.615240335e-05
2.959228011e-05
2.924992742e-05
0.0002652719291
3.004411783e-05
2.970040941e-05
2.946770179e-05
2.981149786e-05
2.614202812e-05
2.62233756e-05
2.642816869e-05
2.634545281e-05
2.682726024e-05
2.674818911e-05
2.654850012e-05
2.663045407e-05
0.0009297006653
0.0003376229642
0.0003388980266
0.0003139929576
0.000315216146
0.0001089721791
0.0001095445637
0.0001100520235
0.0001095578653
9.770790486e-05
9.803466873e-05
9.865274433e-05
9.838760315e-05
3.174347777e-05
3.198402976e-05
3.213294061e-05
3.190799633e-05
3.238488936e-05
3.218949224e-05
3.205448178e-05
3.226437758e-05
2.693900289e-05
2.70132361e-05
2.718697476e-05
2.711866568e-05
2.749107581e-05
2.743578847e-05
2.728422006e-05
2.73460183e-05
0.000974530561
2.915527316e-05
2.881584254e-05
2.536767923e-05
2.544106323e-05
8.463262301e-05
9.242116227e-05
8.534496582e-05
0.0002515635729
9.085936996e-05
2.858770965e-05
2.8925699e-05
2.563112109e-05
2.55572406e-05
2.602164496e-05
2.594281725e-05
2.574750722e-05
2.582344215e-05
2.263193991e-05
2.27168383e-05
2.288285458e-05
2.279825833e-05
2.320259205e-05
2.312358879e-05
2.296321462e-05
2.304584104e-05
0.0009336031482
0.0003395951539
0.0003405298239
0.0003162856937
0.0003171419462
0.0001100444462
0.0001104697842
0.0001108170013
0.0001104522273
9.89446447e-05
9.915973597e-05
9.957664832e-05
9.940185446e-05
3.230897873e-05
3.249063406e-05
3.258775156e-05
3.241919897e-05
3.275073529e-05
3.260624356e-05
3.251639725e-05
3.267260729e-05
2.757256538e-05
2.762161345e-05
2.773940912e-05
2.769610785e-05
2.793912245e-05
2.790571698e-05
2.780652944e-05
2.784458555e-05
2.327602202e-05
2.335000763e-05
2.348629367e-05
2.341813496e-05
2.372230352e-05
2.366650221e-05
2.354843926e-05
2.361040174e-05
2.525228447e-05
2.517724051e-05
2.198581855e-05
2.206708658e-05
2.810393162e-05
8.372706842e-05
2.843387509e-05
2.869032551e-05
2.83546652e-05
8.887964271e-05
9.020336047e-05
8.289983947e-05
2.498011375e-05
2.505883323e-05
2.22262508e-05
2.214463405e-05
2.255105686e-05
2.246698006e-05
2.230451173e-05
2.238724998e-05
2.025032646e-05
2.031879716e-05
2.045509098e-05
2.038737277e-05
2.071479508e-05
2.065245824e-05
2.052228684e-05
2.058797546e-05
0.0003409989676
0.0003416737552
0.0003178950386
0.0003184887099
0.0001107905408
0.0001111020184
0.0001113383848
0.0001110737955
9.977723004e-05
9.991961254e-05
0.0001002025835
0.0001000864642
3.268522913e-05
3.281878551e-05
3.288175713e-05
3.275852419e-05
3.298738233e-05
3.288282416e-05
3.282287361e-05
3.293650547e-05
2.799404493e-05
2.80233413e-05
2.809909853e-05
2.807338585e-05
2.822723683e-05
2.820747094e-05
2.814400968e-05
2.816654237e-05
2.377245629e-05
2.382242889e-05
2.391175869e-05
2.386715809e-05
2.406161047e-05
2.402630231e-05
2.395142595e-05
2.39911137e-05
2.077537368e-05
2.083335579e-05
2.09421794e-05
2.088917398e-05
2.112866635e-05
2.10860935e-05
2.099287415e-05
2.104067424e-05
2.190816413e-05
2.182610218e-05
1.970820152e-05
1.977513796e-05
2.816970442e-05
2.456329814e-05
2.784836295e-05
2.465156214e-05
2.485961123e-05
2.477615724e-05
8.114366165e-05
8.19683604e-05
2.758377955e-05
2.789166991e-05
2.166299447e-05
2.174689972e-05
1.990953657e-05
1.984243916e-05
2.018154036e-05
2.011328129e-05
1.997725522e-05
2.00449373e-05
1.985191869e-05
1.991270835e-05
2.003211736e-05
1.997280331e-05
2.025742925e-05
2.020339514e-05
2.009056738e-05
2.014783313e-05
0.0003190135821
0.0003194210585
0.0001113073362
0.0001115310812
0.0001116904219
0.0001115021801
0.0001003407075
0.0001004352252
0.0001006264412
0.0001005497019
3.293533415e-05
3.30314972e-05
3.307270549e-05
3.298442712e-05
3.314175237e-05
3.306762452e-05
3.302736668e-05
3.310836204e-05
2.826393309e-05
2.828128124e-05
2.833006562e-05
2.831479399e-05
2.841285456e-05
2.84010165e-05
2.83601183e-05
2.837355367e-05
2.409277441e-05
2.412422038e-05
2.417997368e-05
2.415193119e-05
2.427366541e-05
2.425139208e-05
2.42045523e-05
2.422954133e-05
2.116903289e-05
2.120681107e-05
2.1276007e-05
2.12425999e-05
2.139066195e-05
2.13647731e-05
2.130758096e-05
2.133698272e-05
2.030940682e-05
2.035955827e-05
2.045275937e-05
2.04072904e-05
2.061200583e-05
2.057575573e-05
2.049621285e-05
2.05372519e-05
1.964070619e-05
1.957319726e-05
1.935804826e-05
1.942056804e-05
2.44374992e-05
2.132373486e-05
2.434587815e-05
2.141175095e-05
2.158165477e-05
2.149551187e-05
2.70759017e-05
2.734581912e-05
2.761679069e-05
2.732595567e-05
2.412673434e-05
2.421946986e-05
1.943604066e-05
1.950477157e-05
1.954484661e-05
1.948280206e-05
1.979100214e-05
1.972989373e-05
1.960667551e-05
1.966840961e-05
1.616515291e-05
1.621003252e-05
1.629728966e-05
1.625410528e-05
1.64605984e-05
1.642160413e-05
1.633996263e-05
1.638160489e-05
0.0001116618499
0.0001118195798
0.0001119261413
0.0001117947097
0.0001007205594
0.0001007827056
0.0001009106621
0.0001008603441
3.310268714e-05
3.3170504e-05
3.319750498e-05
3.313559352e-05
3.324241682e-05
3.319101184e-05
3.316416478e-05
3.322065679e-05
2.84374381e-05
2.84478484e-05
2.847952344e-05
2.847032269e-05
2.85332774e-05
2.852612469e-05
2.84996313e-05
2.850774457e-05
2.429305844e-05
2.431295728e-05
2.434808003e-05
2.433027725e-05
2.440739889e-05
2.439317027e-05
2.436348659e-05
2.437940625e-05
2.141519778e-05
2.14380862e-05
2.148007425e-05
2.145980408e-05
2.155006869e-05
2.15342544e-05
2.149932883e-05
2.151726659e-05
2.064600964e-05
2.067811015e-05
2.073651891e-05
2.070822641e-05
2.083218151e-05
2.081062749e-05
2.076290977e-05
2.078757212e-05
1.649776668e-05
1.65338483e-05
1.659999974e-05
1.656782702e-05
1.671319291e-05
1.668762678e-05
1.663121434e-05
1.666043721e-05
1.929522488e-05
1.92316308e-05
1.579741967e-05
1.584420083e-05
2.123857376e-05
1.915381798e-05
2.115002906e-05
1.922498739e-05
1.936623414e-05
1.929607804e-05
2.371062003e-05
2.379635331e-05
2.400404167e-05
2.391340802e-05
2.09776918e-05
2.106490346e-05
1.910303161e-05
1.916775987e-05
1.593730451e-05
1.589088985e-05
1.612027953e-05
1.607531508e-05
1.598351595e-05
1.602955334e-05
1.316014286e-05
1.319266662e-05
1.325529004e-05
1.322440487e-05
1.337175269e-05
1.334404362e-05
1.328592375e-05
1.331571459e-05
0.0001009741727
0.0001010148369
0.0001010998888
0.0001010670395
3.321419834e-05
3.326098097e-05
3.327850355e-05
3.323601828e-05
3.33075107e-05
3.327259482e-05
3.32548456e-05
3.329342044e-05
2.854966481e-05
2.855595213e-05
2.857648357e-05
2.857092246e-05
2.861120177e-05
2.860688947e-05
2.85898212e-05
2.859471558e-05
2.441960625e-05
2.443228376e-05
2.445450866e-05
2.444316758e-05
2.449197509e-05
2.448295287e-05
2.446419353e-05
2.447432213e-05
2.156513497e-05
2.157921214e-05
2.160515323e-05
2.15926289e-05
2.164868701e-05
2.163880496e-05
2.16170727e-05
2.162817587e-05
2.085238745e-05
2.087155166e-05
2.090613034e-05
2.088938486e-05
2.096352946e-05
2.095071091e-05
2.092207207e-05
2.093694595e-05
1.673707985e-05
1.675978951e-05
1.680115925e-05
1.678110947e-05
1.686831516e-05
1.685328241e-05
1.681977299e-05
1.683707069e-05
1.339792136e-05
1.342351079e-05
1.346977233e-05
1.344734366e-05
1.354915968e-05
1.353137566e-05
1.349190616e-05
1.351244003e-05
1.575050252e-05
1.570267603e-05
1.289192925e-05
1.292619202e-05
1.908222723e-05
1.883838431e-05
1.901117034e-05
1.890530184e-05
1.903765258e-05
1.897168511e-05
2.065533925e-05
2.0733098e-05
2.089490104e-05
2.081139271e-05
1.887083141e-05
1.894037265e-05
1.560675632e-05
1.565511779e-05
1.299447533e-05
1.296048147e-05
1.312772506e-05
1.3095303e-05
1.302829736e-05
1.306192717e-05
1.071181362e-05
1.073485564e-05
1.07787933e-05
1.075719948e-05
1.086013237e-05
1.084083307e-05
1.080032234e-05
1.082119648e-05
3.328782054e-05
3.331943147e-05
3.333073978e-05
3.330218633e-05
3.332614007e-05
3.331450365e-05
3.334029772e-05
2.862200484e-05
2.862579404e-05
2.86390216e-05
2.86356564e-05
2.866137088e-05
2.865875239e-05
2.864778785e-05
2.865075851e-05
2.44996055e-05
2.450762903e-05
2.452161234e-05
2.451443194e-05
2.454518774e-05
2.453947568e-05
2.452766922e-05
2.453407685e-05
2.165805137e-05
2.166669278e-05
2.168269202e-05
2.167494673e-05
2.170938217e-05
2.17033661e-05
2.169005291e-05
2.169687379e-05
2.09757314e-05
2.098734074e-05
2.100830757e-05
2.099813332e-05
2.104380493e-05
2.10352673e-05
2.101803244e-05
2.10269565e-05
1.68824283e-05
1.689607916e-05
1.692023013e-05
1.690857249e-05
1.696059562e-05
1.69518502e-05
1.693171906e-05
1.694225989e-05
1.356570657e-05
1.358156755e-05
1.361050559e-05
1.359647059e-05
1.36570329e-05
1.364669387e-05
1.362346866e-05
1.363544005e-05
1.087817642e-05
1.08959844e-05
1.092768796e-05
1.091236972e-05
1.098235661e-05
1.09702211e-05
1.09431163e-05
1.095728574e-05
1.285763018e-05
1.28224059e-05
1.052096286e-05
1.054542938e-05
1.877149155e-05
1.541016074e-05
1.870501477e-05
1.545977408e-05
1.555793745e-05
1.550891861e-05
1.861107441e-05
1.86722408e-05
1.880247658e-05
1.873631713e-05
1.857338867e-05
1.863893526e-05
1.275231645e-05
1.278772624e-05
1.059427168e-05
1.056998972e-05
1.068894928e-05
1.066614924e-05
1.061841922e-05
1.064238969e-05
8.717696955e-06
8.733549026e-06
8.763461928e-06
8.748816732e-06
8.818692129e-06
8.805612328e-06
8.778171926e-06
8.792397067e-06
2.866842305e-05
2.867071357e-05
2.867918059e-05
2.867714223e-05
2.869183091e-05
2.868486888e-05
2.868666683e-05
2.454995681e-05
2.455503277e-05
2.456385349e-05
2.455929444e-05
2.457877996e-05
2.457515922e-05
2.456767204e-05
2.457175305e-05
2.171508239e-05
2.172031745e-05
2.173005871e-05
2.172533824e-05
2.174638308e-05
2.174268917e-05
2.173456822e-05
2.173872453e-05
2.105106958e-05
2.105765273e-05
2.107051266e-05
2.106430377e-05
2.109175402e-05
2.108681187e-05
2.107648964e-05
2.108176978e-05
1.696917634e-05
1.697746983e-05
1.699207891e-05
1.698500655e-05
1.701768333e-05
1.70107875e-05
1.699916577e-05
1.700527985e-05
1.366675725e-05
1.367637166e-05
1.369301503e-05
1.368501035e-05
1.372104725e-05
1.371518336e-05
1.370120997e-05
1.370859304e-05
1.099359686e-05
1.100447883e-05
1.102437544e-05
1.101471614e-05
1.105601791e-05
1.104904717e-05
1.103324367e-05
1.104137527e-05
8.830778089e-06
8.842855911e-06
8.863969062e-06
8.853808172e-06
8.900662821e-06
8.892604383e-06
8.874473987e-06
8.884008461e-06
1.049652195e-05
1.047120523e-05
8.586137099e-06
8.603051907e-06
1.536077532e-05
1.260900172e-05
1.531228604e-05
1.264513551e-05
1.271657383e-05
1.268084321e-05
1.832851066e-05
1.838647577e-05
1.850924748e-05
1.844689293e-05
1.521589138e-05
1.526401397e-05
1.042124591e-05
1.044654924e-05
8.636897639e-06
8.62009692e-06
8.702070586e-06
8.6865589e-06
8.653602453e-06
8.670161369e-06
7.093961797e-06
7.104429922e-06
7.12393742e-06
7.114431701e-06
7.15995417e-06
7.151432694e-06
7.13359653e-06
7.142914168e-06
2.458176044e-05
2.458495335e-05
2.459047644e-05
2.458760908e-05
2.459750228e-05
2.459285478e-05
2.459541004e-05
2.174988624e-05
2.175308333e-05
2.175909012e-05
2.175616088e-05
2.176932623e-05
2.176702682e-05
2.176192594e-05
2.176454231e-05
2.109610291e-05
2.110005238e-05
2.110757594e-05
2.110380089e-05
2.112031501e-05
2.111724438e-05
2.111129118e-05
2.111431936e-05
1.702249312e-05
1.702655818e-05
1.703582408e-05
1.703147826e-05
1.70510607e-05
1.704728322e-05
1.704032742e-05
1.704378424e-05
1.372700505e-05
1.373286495e-05
1.374290501e-05
1.373805716e-05
1.376118381e-05
1.375570249e-05
1.374801763e-05
1.37521388e-05
1.106258909e-05
1.106925711e-05
1.108050937e-05
1.107512105e-05
1.109963571e-05
1.109580391e-05
1.108627544e-05
1.1091365e-05
8.908084516e-06
8.915364309e-06
8.928716367e-06
8.922225998e-06
8.949668216e-06
8.945102518e-06
8.934631901e-06
8.940007374e-06
7.167710855e-06
7.175603989e-06
7.189075779e-06
7.182625315e-06
7.212794129e-06
7.207657786e-06
7.195993194e-06
7.202176558e-06
8.569285341e-06
8.551639646e-06
7.007192448e-06
7.018372358e-06
1.257316736e-05
1.031916553e-05
1.253841141e-05
1.034490618e-05
1.039569024e-05
1.037025328e-05
1.503837923e-05
1.508014708e-05
1.516911124e-05
1.512401496e-05
1.246893285e-05
1.25037269e-05
8.517154421e-06
8.534679393e-06
7.040824484e-06
7.02970085e-06
7.083747977e-06
7.073683381e-06
7.05188842e-06
7.062842027e-06
5.772101251e-06
5.778594195e-06
5.790484198e-06
5.784728947e-06
5.812531092e-06
5.807311021e-06
5.796448434e-06
5.802188119e-06
2.177148411e-05
2.177342513e-05
2.177711392e-05
2.177530023e-05
2.178197044e-05
2.177887964e-05
2.178047462e-05
2.112297076e-05
2.112521197e-05
2.112973318e-05
2.112739132e-05
2.11377638e-05
2.113587403e-05
2.113212649e-05
2.113404787e-05
1.705401999e-05
1.705657053e-05
1.706181859e-05
1.705904434e-05
1.70710784e-05
1.706856182e-05
1.706485453e-05
1.706664585e-05
1.376429079e-05
1.376667569e-05
1.377328284e-05
1.377028073e-05
1.378409741e-05
1.378124073e-05
1.377664407e-05
1.377884577e-05
1.110369956e-05
1.110777822e-05
1.111454416e-05
1.111128668e-05
1.11274157e-05
1.112311902e-05
1.111818507e-05
1.112089673e-05
8.953984536e-06
8.95851094e-06
8.965909516e-06
8.96238656e-06
8.978633103e-06
8.976227165e-06
8.969893216e-06
8.973322768e-06
7.217487868e-06
7.222180113e-06
7.2308263e-06
7.226614721e-06
7.244150664e-06
7.241291201e-06
7.234626116e-06
7.238036804e-06
5.817176968e-06
5.82204615e-06
5.830063092e-06
5.826253772e-06
5.844505445e-06
5.841443979e-06
5.834391699e-06
5.838174939e-06
6.996096239e-06
6.984302127e-06
5.718649151e-06
5.725543034e-06
1.029372471e-05
8.446613027e-06
1.026937672e-05
8.464425346e-06
8.4994317e-06
8.481872731e-06
1.23421394e-05
1.237180428e-05
1.243532618e-05
1.240320596e-05
1.022032117e-05
1.024498648e-05
6.961545153e-06
6.973166966e-06
5.73947577e-06
5.732591465e-06
5.76587588e-06
5.759822546e-06
5.746331413e-06
5.753111135e-06
4.696181871e-06
4.699787308e-06
4.706189812e-06
4.703127738e-06
4.718228782e-06
4.715366346e-06
4.709491101e-06
4.712660706e-06
2.113943783e-05
2.114069947e-05
2.114343299e-05
2.114191116e-05
2.1147172e-05
2.114504703e-05
2.114619564e-05
1.707296843e-05
1.707422902e-05
1.707733806e-05
1.707556782e-05
1.708331395e-05
1.708178591e-05
1.707940641e-05
1.708057928e-05
1.378607668e-05
1.378767171e-05
1.379128356e-05
1.378926286e-05
1.379794792e-05
1.379592299e-05
1.379371922e-05
1.379470274e-05
1.112934773e-05
1.11306223e-05
1.113526785e-05
1.113323253e-05
1.114283753e-05
1.114069995e-05
1.113775086e-05
1.113909281e-05
8.98133567e-06
8.984116145e-06
8.988545999e-06
8.986421237e-06
8.997445001e-06
8.99411892e-06
8.991096401e-06
8.992816186e-06
7.246866551e-06
7.249845405e-06
7.254507863e-06
7.25230553e-06
7.26265798e-06
7.261244031e-06
7.257191011e-06
7.259426509e-06
5.847270794e-06
5.85012095e-06
5.85541351e-06
5.852826822e-06
5.863347889e-06
5.861686634e-06
5.857711582e-06
5.859735121e-06
4.720671266e-06
4.723385e-06
4.727562855e-06
4.725606866e-06
4.735459249e-06
4.733850713e-06
4.730045946e-06
4.732132691e-06
5.711849452e-06
5.70444949e-06
4.667082378e-06
4.670829868e-06
8.429067202e-06
6.914829198e-06
8.412538374e-06
6.926663027e-06
6.949765411e-06
6.938159241e-06
1.013153112e-05
1.015218779e-05
1.019665381e-05
1.017424227e-05
8.378857543e-06
8.395884976e-06
5.690447756e-06
5.697655728e-06
4.678504564e-06
4.674730123e-06
4.692846274e-06
4.689695338e-06
4.682275518e-06
4.686001428e-06
3.820570039e-06
3.822118625e-06
3.824646744e-06
3.823480091e-06
3.829650758e-06
3.828441211e-06
3.82606536e-06
3.827423165e-06
1.708459657e-05
1.708515885e-05
1.708698208e-05
1.708572393e-05
1.70896345e-05
1.708854258e-05
1.708919745e-05
1.379927658e-05
1.3799908e-05
1.380201025e-05
1.380068572e-05
1.380641596e-05
1.380520039e-05
1.380374586e-05
1.380442278e-05
1.114412621e-05
1.114507199e-05
1.114751135e-05
1.11460563e-05
1.115224687e-05
1.11506422e-05
1.114943662e-05
1.114989797e-05
8.998572948e-06
8.999123969e-06
9.002330141e-06
9.000985377e-06
9.007527332e-06
9.00594644e-06
9.004140873e-06
9.004900023e-06
7.264387753e-06
7.266228931e-06
7.269003006e-06
7.267679416e-06
7.275001136e-06
7.272456905e-06
7.270750538e-06
7.271777595e-06
5.864938065e-06
5.866808329e-06
5.869546653e-06
5.868270243e-06
5.874459899e-06
5.873727112e-06
5.87128794e-06
5.872672371e-06
4.736879682e-06
4.738434679e-06
4.741366466e-06
4.73992494e-06
4.745541794e-06
4.744709766e-06
4.74261222e-06
4.743669192e-06
3.830562687e-06
3.831766737e-06
3.833293682e-06
3.832613346e-06
3.836650692e-06
3.836040707e-06
3.834482314e-06
3.83539042e-06
4.663432968e-06
4.659276031e-06
3.808900274e-06
3.81038658e-06
6.903215526e-06
5.661483015e-06
6.892501121e-06
5.668866891e-06
5.683112076e-06
5.675940587e-06
8.318367323e-06
8.332356613e-06
8.362638078e-06
8.34744407e-06
6.870288105e-06
6.881608418e-06
4.65169823e-06
4.655661508e-06
3.813560212e-06
3.812019542e-06
3.81928509e-06
3.818188976e-06
3.815116588e-06
3.816654276e-06
3.108056317e-06
3.108176834e-06
3.108040487e-06
3.108172848e-06
3.108222905e-06
3.108143771e-06
3.108161374e-06
3.108272886e-06
1.38073874e-05
1.380752499e-05
1.380871385e-05
1.380769418e-05
1.381057567e-05
1.381012751e-05
1.381046526e-05
1.115316537e-05
1.115339984e-05
1.115478735e-05
1.115380714e-05
1.115799956e-05
1.115704715e-05
1.115621261e-05
1.115656401e-05
9.008333024e-06
9.00884162e-06
9.010443471e-06
9.00941179e-06
9.013752839e-06
9.012498394e-06
9.011946765e-06
9.012077244e-06
7.275584996e-06
7.275674521e-06
7.277831184e-06
7.276977375e-06
7.281303635e-06
7.280150706e-06
7.279131434e-06
7.279500623e-06
5.875500569e-06
5.876667197e-06
5.878279735e-06
5.877517111e-06
5.882176768e-06
5.880252518e-06
5.879440448e-06
5.879989298e-06
4.746350216e-06
4.747435596e-06
4.74883881e-06
4.748202314e-06
4.751489139e-06
4.751216654e-06
4.749904628e-06
4.750689515e-06
3.837150285e-06
3.837810697e-06
3.839108086e-06
3.838459949e-06
3.840707898e-06
3.840439592e-06
3.839628669e-06
3.840024382e-06
3.108099539e-06
3.108270796e-06
3.108015433e-06
3.108189552e-06
3.108299328e-06
3.108358324e-06
3.108315564e-06
3.108423945e-06
3.807511785e-06
3.805700358e-06
3.108533003e-06
3.108437158e-06
5.654271292e-06
4.635748616e-06
5.647828935e-06
4.639870406e-06
4.647630252e-06
4.643709947e-06
6.830706721e-06
6.839797114e-06
6.859602193e-06
6.849730929e-06
5.634073686e-06
5.641175251e-06
3.802738732e-06
3.804364823e-06
3.108457587e-06
3.108479436e-06
3.108187799e-06
3.10850603e-06
3.108465861e-06
3.108476509e-06
1.11587262e-05
1.115861681e-05
1.11593651e-05
1.115855174e-05
1.116065243e-05
1.116059537e-05
1.116073245e-05
9.014374359e-06
9.014363753e-06
9.015247866e-06
9.014531171e-06
9.017557678e-06
9.016820911e-06
9.016397661e-06
9.016539889e-06
7.281774447e-06
7.281994258e-06
7.283001773e-06
7.282283727e-06
7.285262533e-06
7.284293554e-06
7.284160975e-06
7.284089565e-06
5.882397312e-06
5.882203015e-06
5.883600321e-06
5.883092788e-06
5.885829873e-06
5.885002227e-06
5.884516879e-06
5.884628822e-06
4.752048497e-06
4.752735685e-06
4.753544762e-06
4.753169019e-06
4.755934787e-06
4.754497061e-06
4.754280065e-06
4.754504592e-06
3.840984769e-06
3.841522195e-06
3.842016179e-06
3.841813189e-06
3.843111607e-06
3.843142139e-06
3.842604184e-06
3.842973236e-06
3.108185456e-06
3.108242335e-06
3.108434091e-06
3.108323214e-06
3.108314226e-06
3.108418473e-06
3.108466969e-06
3.108421721e-06
3.108723721e-06
3.108565811e-06
4.631755026e-06
3.796147869e-06
4.62840444e-06
3.797922394e-06
3.801026583e-06
3.799442612e-06
5.609785655e-06
5.615311591e-06
5.627456035e-06
5.621469993e-06
4.620801292e-06
4.624825347e-06
3.108835109e-06
3.108820648e-06
9.018095141e-06
9.017850612e-06
9.018295244e-06
9.017654532e-06
9.019166874e-06
9.019337255e-06
9.019350201e-06
7.285669829e-06
7.285514784e-06
7.28604639e-06
7.285530503e-06
7.287680039e-06
7.2871159e-06
7.28696225e-06
7.286972263e-06
5.886070729e-06
5.886103261e-06
5.886693535e-06
5.886206304e-06
5.888189492e-06
5.887449238e-06
5.887577506e-06
5.887388442e-06
4.755919336e-06
4.755560433e-06
4.756413651e-06
4.756146822e-06
4.757756646e-06
4.757174241e-06
4.757044115e-06
4.756991321e-06
3.843340652e-06
3.843691935e-06
3.843955759e-06
3.843841948e-06
3.845279331e-06
3.844219623e-06
3.844387066e-06
3.844396288e-06
3.108238977e-06
3.108401729e-06
3.108292982e-06
3.10837598e-06
3.108346237e-06
3.108568237e-06
3.108549109e-06
3.108635735e-06
3.794463655e-06
3.108807929e-06
3.79330753e-06
3.108933477e-06
3.108779442e-06
3.108832024e-06
4.6075556e-06
4.610520494e-06
4.61713511e-06
4.613947367e-06
3.790101285e-06
3.791918152e-06
7.288071243e-06
7.287762102e-06
7.287999689e-06
7.287501758e-06
7.288572455e-06
7.288865433e-06
7.288805039e-06
5.888443063e-06
5.888210269e-06
5.888497504e-06
5.88813295e-06
5.889627771e-06
5.889201178e-06
5.889218812e-06
5.889148506e-06
4.757842623e-06
4.757757727e-06
4.758058893e-06
4.757740161e-06
4.759002334e-06
4.75844369e-06
4.758725596e-06
4.758473892e-06
3.845116538e-06
3.844672044e-06
3.845140847e-06
3.845038332e-06
3.845859859e-06
3.845460786e-06
3.845559969e-06
3.845406727e-06
3.108353613e-06
3.10847449e-06
3.108378366e-06
3.108436866e-06
3.108960619e-06
3.108191119e-06
3.108595867e-06
3.108467368e-06
3.108741629e-06
3.109103328e-06
3.784694662e-06
3.785850084e-06
3.788540373e-06
3.787332978e-06
3.108967473e-06
3.109235901e-06
5.889907392e-06
5.889577155e-06
5.889675963e-06
5.889293177e-06
5.890035309e-06
5.890384777e-06
5.890283689e-06
4.759147317e-06
4.758879188e-06
4.759000072e-06
4.758747965e-06
4.759758442e-06
4.759440247e-06
4.759562028e-06
4.759446065e-06
3.84584427e-06
3.845690107e-06
3.845794574e-06
3.845597641e-06
3.846343795e-06
3.845927267e-06
3.846291272e-06
3.846013012e-06
3.10871137e-06
3.108232995e-06
3.108434997e-06
3.108441996e-06
3.108723123e-06
3.108459373e-06
3.108699872e-06
3.108490123e-06
3.108999376e-06
3.108906001e-06
3.108874476e-06
3.109035501e-06
4.759954517e-06
4.759628581e-06
4.759636393e-06
4.759344797e-06
4.759845236e-06
4.760210118e-06
4.760089622e-06
3.846413441e-06
3.846136118e-06
3.846146377e-06
3.845977763e-06
3.846633323e-06
3.846399028e-06
3.846580172e-06
3.846441594e-06
3.108643748e-06
3.108452249e-06
3.10842675e-06
3.108316625e-06
3.10869925e-06
3.1083925e-06
3.10879175e-06
3.108510125e-06
3.846766997e-06
3.846459893e-06
3.846409994e-06
3.846190702e-06
3.846514257e-06
3.846870508e-06
3.84674394e-06
3.108717501e-06
3.108447251e-06
3.108386501e-06
3.108279001e-06
3.108677876e-06
3.108507876e-06
3.108718251e-06
3.108571876e-06
3.108765251e-06
3.108484627e-06
3.108400253e-06
3.108237128e-06
3.108433128e-06
3.108767003e-06
3.108642628e-06
2.245657253e-06
2.715515919e-06
2.282589635e-06
3.282685067e-06
2.735867965e-06
2.455786982e-06
3.966837949e-06
3.273452693e-06
2.990823945e-06
2.295600265e-06
4.791388123e-06
3.908272149e-06
3.646143475e-06
2.76703206e-06
2.348354024e-06
5.784092733e-06
4.65382006e-06
4.450475346e-06
3.332793585e-06
2.807482525e-06
2.494956884e-06
6.977688927e-06
5.523298948e-06
5.440160532e-06
4.01057625e-06
3.348613529e-06
3.033253042e-06
2.510726804e-06
8.410523772e-06
6.528130703e-06
6.66147325e-06
4.820813106e-06
3.982596681e-06
3.68839115e-06
3.087095633e-06
2.285457427e-06
1.012714273e-05
7.67550219e-06
8.173773323e-06
5.78680496e-06
4.719683709e-06
4.486052541e-06
3.802547345e-06
2.770801495e-06
2.324536133e-06
1.217869878e-05
8.964449646e-06
1.005381637e-05
6.93466597e-06
5.568091412e-06
5.457712241e-06
4.693782573e-06
3.358405903e-06
2.790815189e-06
2.476500781e-06
1.322027298e-05
1.037972109e-05
1.240169898e-05
8.292951269e-06
6.531668296e-06
6.642010882e-06
5.808574882e-06
4.069416881e-06
3.344456111e-06
3.017575714e-06
2.274878079e-06
2.147011066e-05
2.654877666e-05
1.534911859e-05
9.8917615e-06
7.606186642e-06
8.086490068e-06
7.209664949e-06
4.92915694e-06
3.998809433e-06
3.67991812e-06
2.741506482e-06
2.347973156e-06
2.444060418e-05
2.55953352e-05
2.714930165e-05
1.176101171e-05
8.773586637e-06
9.849784274e-06
8.980231319e-06
5.967852773e-06
4.767684005e-06
4.492117124e-06
3.301047426e-06
2.804006938e-06
2.505187933e-06
2.631189729e-05
2.837412369e-05
2.380327657e-05
1.274512838e-05
3.03978041e-05
9.993148673e-06
1.200442226e-05
1.123162177e-05
7.221443227e-06
5.664351932e-06
5.490136804e-06
3.970657385e-06
3.34022067e-06
3.041403402e-06
2.538244616e-06
2.935094224e-05
2.870391799e-05
3.150706087e-05
1.867381894e-05
2.604490479e-05
9.131004954e-05
1.464042874e-05
1.41143551e-05
8.732438756e-06
6.699827582e-06
6.719494891e-06
4.770000033e-06
3.966589177e-06
3.692001827e-06
3.114076027e-06
2.332910128e-06
2.91128918e-05
2.816266397e-05
3.191697862e-05
2.420638893e-05
2.760161563e-05
9.734534421e-05
9.720471841e-05
1.783389357e-05
1.055079885e-05
7.880038906e-06
8.238180355e-06
5.721264328e-06
4.692094209e-06
4.481184128e-06
3.825731203e-06
2.821603504e-06
2.409174151e-06
3.101897332e-05
9.423840284e-05
3.038690303e-05
2.76390667e-05
2.861117153e-05
0.0003098334493
0.0001019279572
9.458639162e-05
1.273474448e-05
9.20131064e-06
1.012062407e-05
6.848945717e-06
5.523108425e-06
5.438174495e-06
4.707683366e-06
3.410196228e-06
2.88383089e-06
2.55163894e-06
0.0001007706935
3.152523765e-05
2.511760844e-05
1.394516744e-05
2.838366912e-05
0.0003121694026
0.0001053987954
9.744140153e-05
1.064328342e-05
1.246312461e-05
8.179243356e-06
6.460804012e-06
6.598213259e-06
5.804250755e-06
4.1179042e-06
3.443715756e-06
3.100441222e-06
2.582356232e-06
3.052102302e-05
9.115522443e-05
2.803191066e-05
2.221917222e-05
9.074306959e-05
0.0001005123837
0.0003031392687
0.0003030403108
1.539134323e-05
9.738812329e-06
7.497076079e-06
8.00372791e-06
7.172873007e-06
4.967037447e-06
4.100034203e-06
3.767413712e-06
3.163734773e-06
2.346595517e-06
9.919505758e-05
2.699542293e-05
2.547102231e-05
2.826059214e-05
8.9938908e-05
0.0003182156336
0.0003359794657
0.0002974450058
1.155251732e-05
8.608247646e-06
9.705688512e-06
8.888641227e-06
5.983185163e-06
4.863241067e-06
4.578057502e-06
3.881191739e-06
2.82935528e-06
2.450098294e-06
0.0001038546458
2.333174177e-05
1.258613675e-05
2.504318162e-05
2.986724051e-05
3.081274217e-05
9.639111279e-05
0.0003210422688
0.0003364493481
0.0009273973908
0.000305860106
0.0001054849703
9.745463763e-06
1.176517411e-05
1.105062954e-05
7.195209157e-06
5.741444664e-06
5.563401331e-06
4.768989879e-06
3.408497041e-06
2.922436098e-06
2.61739658e-06
1.816114765e-05
2.322558608e-05
2.666536733e-05
3.106608154e-05
2.757301731e-05
9.358840092e-05
2.995147941e-05
0.0003152393176
0.0003389224352
0.0009632403199
0.0003340138238
0.0001076980954
0.0001102542443
1.42551386e-05
1.379081162e-05
8.634906178e-06
6.737808094e-06
6.761211999e-06
5.871099583e-06
4.101845246e-06
3.476430647e-06
3.169566797e-06
2.649166749e-06
2.577950586e-05
1.728670791e-05
2.758576356e-05
2.320267505e-05
9.003130047e-05
9.837367521e-05
2.787339776e-05
0.0009470238042
0.0003213832231
0.0009240990502
0.000298010471
0.0001048377049
0.0001095349447
0.0001001775268
1.033610002e-05
7.846425181e-06
8.217474006e-06
7.244396082e-06
4.92982109e-06
4.121570668e-06
3.836273538e-06
3.241266039e-06
2.641249207e-06
1.292770909e-05
1.233282074e-05
2.495981872e-05
1.835037406e-05
8.877279486e-05
2.761792163e-05
2.653768687e-05
2.771961746e-05
0.0003163629206
0.0009115390982
0.0009571286854
0.0003042669022
9.994498346e-05
0.00010163283
9.197792362e-05
9.045901481e-06
9.988202299e-06
8.963077729e-06
5.915447158e-06
4.865907607e-06
4.640327942e-06
3.967712265e-06
3.247249904e-06
2.406414032e-06
1.028949466e-05
2.345438456e-05
1.476112225e-05
2.925666738e-05
3.026884046e-05
2.400783038e-05
2.237704242e-05
2.540732271e-05
0.0002938943318
0.0003287532645
0.0009194085721
0.0003295589176
0.0009615417136
9.146378339e-05
9.778391802e-05
0.0001038429752
9.482875562e-05
3.156999185e-05
3.092412392e-05
1.214166611e-05
1.112482258e-05
7.084099443e-06
5.714198875e-06
5.608615848e-06
4.859959299e-06
3.998099053e-06
2.908271598e-06
2.479105563e-06
1.734107924e-05
2.585238963e-05
2.702282136e-05
2.003875514e-05
1.751639889e-05
1.270358321e-05
0.0001024201502
0.0003007289814
0.0001013963718
0.0009268953232
0.0003355116927
0.0003338460344