/*--------------------------------*- C++ -*----------------------------------*\
  =========                 |
  \\      /  F ield         | OpenFOAM: The Open Source CFD Toolbox
   \\    /   O peration     | Website:  https://openfoam.org
    \\  /    A nd           | Version:  8
     \\/     M anipulation  |
\*---------------------------------------------------------------------------*/






FoamFile
{
    version     2.0;
    format      ascii;
    class       volScalarField;
    location    "0";
    object      pDDES;
}
// * * * * * * * * * * * * * * * * * * * * * * * * * * * * * * * * * * * * * //

dimensions      [0 2 -2 0 0 0 0];


internalField   nonuniform List<scalar> 
18819
(
6.124043011e-06
1.012838402e-05
1.02066515e-05
1.437319315e-05
1.400710426e-05
5.860516467e-06
1.255296866e-05
1.430172142e-05
1.826949301e-05
1.672666804e-05
1.844919825e-05
1.799870006e-05
8.301158232e-06
1.007940227e-05
3.301986681e-06
1.550153229e-06
1.632870772e-05
1.803952364e-05
2.167667662e-05
2.059939288e-05
2.171153392e-05
2.01219118e-05
2.215772838e-05
2.186599522e-05
1.217840691e-05
6.006544936e-06
1.427221378e-05
6.568099025e-07
-1.909551429e-06
1.907714432e-05
1.969588448e-05
2.105229032e-05
2.060477891e-05
2.545527605e-05
2.335295903e-05
2.476872214e-05
2.415008748e-05
2.59718945e-05
2.217097426e-05
2.311297612e-05
2.513168511e-05
2.420647252e-05
2.554713501e-05
1.504436568e-05
1.034296292e-05
1.566353239e-05
3.545765367e-06
1.768884249e-05
1.708074706e-05
-2.278761031e-06
-4.723412985e-06
2.138869604e-05
2.275104998e-05
2.4304205e-05
2.343419874e-05
2.911667616e-05
2.691373084e-05
2.842662252e-05
2.75843031e-05
2.943473555e-05
2.620949272e-05
2.711339221e-05
2.909021714e-05
2.821181624e-05
2.547967961e-05
2.634082193e-05
2.833951294e-05
2.74942322e-05
2.904561552e-05
1.395492109e-05
1.741035521e-05
7.117569567e-06
1.303806675e-05
1.86952002e-05
9.294597021e-07
2.066447814e-05
1.937157504e-05
-4.517759862e-06
-7.311249192e-06
2.342810512e-05
2.379590478e-05
2.497197966e-05
2.479741306e-05
2.68168078e-05
2.643760308e-05
2.55650084e-05
2.581436092e-05
3.266908243e-05
3.051000749e-05
3.211614603e-05
3.129627294e-05
3.303753329e-05
3.002852827e-05
3.07805567e-05
3.265914711e-05
3.175995516e-05
2.944782682e-05
3.030960033e-05
3.221540828e-05
3.134486906e-05
2.745662823e-05
2.783882701e-05
2.883941852e-05
2.846210373e-05
3.081852265e-05
3.044872028e-05
2.946659151e-05
2.984091225e-05
3.250022564e-05
1.674622581e-05
1.953223546e-05
1.988161603e-05
9.635939023e-06
1.082713243e-05
5.118982699e-06
1.580833668e-05
2.083306026e-05
2.047452472e-05
-1.157702741e-06
2.279697401e-05
2.242662958e-05
2.145494364e-05
2.181588388e-05
2.598379069e-05
2.6696649e-05
2.779765418e-05
2.73056794e-05
2.940795821e-05
2.894100908e-05
2.795254113e-05
2.842085996e-05
3.618411574e-05
3.419263885e-05
3.564284998e-05
3.483121691e-05
3.666864723e-05
3.364822624e-05
3.447060226e-05
3.624165038e-05
3.53939613e-05
3.319958341e-05
3.397967157e-05
3.58149955e-05
3.502448089e-05
3.14247809e-05
3.179987834e-05
3.278112126e-05
3.240108344e-05
3.460852167e-05
3.425682735e-05
3.335034853e-05
3.368222679e-05
2.994592069e-05
3.041832497e-05
3.140735498e-05
3.094124622e-05
3.337010276e-05
3.291284884e-05
3.193920566e-05
3.240161459e-05
3.583224316e-05
1.893104127e-05
1.8585406e-05
2.214389497e-05
2.258722634e-05
1.336247624e-05
8.348668416e-06
1.451112803e-05
2.589086534e-06
7.354131412e-06
1.76581816e-05
1.799901838e-05
2.353447053e-05
2.308625335e-05
2.546365067e-05
2.500782648e-05
2.405478517e-05
2.45047213e-05
2.843265247e-05
2.882017725e-05
2.977929034e-05
2.963808038e-05
3.173753794e-05
3.134024882e-05
3.03646375e-05
3.076286521e-05
3.953824489e-05
3.773317076e-05
3.923131226e-05
3.846752952e-05
4.02089936e-05
3.717829168e-05
3.800675404e-05
3.982648923e-05
3.89746674e-05
3.687776552e-05
3.761204061e-05
3.943099364e-05
3.865114195e-05
3.518512312e-05
3.553372517e-05
3.644651588e-05
3.609843043e-05
3.828150875e-05
3.793208089e-05
3.70170892e-05
3.73624498e-05
3.389883204e-05
3.435575127e-05
3.532099436e-05
3.485980415e-05
3.714394188e-05
3.670813749e-05
3.579679833e-05
3.622479198e-05
3.23278764e-05
3.273019684e-05
3.370799459e-05
3.331130938e-05
3.564685176e-05
3.525680222e-05
3.429221761e-05
3.46873494e-05
2.163684985e-05
2.119480268e-05
2.462188422e-05
2.501646486e-05
1.577908552e-05
1.265793253e-05
1.617439557e-05
1.708017953e-05
1.674220039e-05
4.493924735e-06
5.635303751e-06
1.122737649e-05
2.024349669e-05
2.069602124e-05
2.596732338e-05
2.55789455e-05
2.786326695e-05
2.748003863e-05
2.653799493e-05
2.692434282e-05
3.03797151e-05
3.085052595e-05
3.179867781e-05
3.132069833e-05
3.372653737e-05
3.32425152e-05
3.227952766e-05
3.276380448e-05
4.115117554e-05
4.254375381e-05
4.199917385e-05
4.37614508e-05
4.081377847e-05
4.165449354e-05
4.338262079e-05
4.256866305e-05
4.046894537e-05
4.123150575e-05
4.303001333e-05
4.226518649e-05
3.885186379e-05
3.920093513e-05
4.008440374e-05
3.974683932e-05
4.190286563e-05
4.155275747e-05
4.064440873e-05
4.100228762e-05
3.763495261e-05
3.806774475e-05
3.89756533e-05
3.854370152e-05
4.080569124e-05
4.03695376e-05
3.946424113e-05
3.989614197e-05
3.622096847e-05
3.661851224e-05
3.755631406e-05
3.716397623e-05
3.938910595e-05
3.901921082e-05
3.810143971e-05
3.847717744e-05
3.421186557e-05
3.469843068e-05
3.566164742e-05
3.518003359e-05
3.757352533e-05
3.709723751e-05
3.61432576e-05
3.662438394e-05
2.405369742e-05
2.366168155e-05
2.659321217e-05
2.707991553e-05
1.505389719e-05
1.828220957e-05
1.463588887e-05
1.877055183e-05
1.974265979e-05
1.928910933e-05
8.637995961e-06
1.001553119e-05
1.353599509e-05
1.394795072e-05
2.270047116e-05
2.309721094e-05
2.803756797e-05
2.755919922e-05
2.991159636e-05
2.944727385e-05
2.851322643e-05
2.89833697e-05
3.212441152e-05
3.258644574e-05
3.352261774e-05
3.305238351e-05
3.541798651e-05
3.494450357e-05
3.399647539e-05
3.447018389e-05
4.546043056e-05
4.712719237e-05
4.434266521e-05
4.511590305e-05
4.682262806e-05
4.602349873e-05
4.403703497e-05
4.480500866e-05
4.653787255e-05
4.577728032e-05
4.246299432e-05
4.280792928e-05
4.370671741e-05
4.33660025e-05
4.547161734e-05
4.513490421e-05
4.425888983e-05
4.459849879e-05
4.128698492e-05
4.172704939e-05
4.260554488e-05
4.218571485e-05
4.440948396e-05
4.399438694e-05
4.309662472e-05
4.352384349e-05
3.993467544e-05
4.030369746e-05
4.120652738e-05
4.083857129e-05
4.301590161e-05
4.26528095e-05
4.175147478e-05
4.211933265e-05
3.804767402e-05
3.85218882e-05
3.945297431e-05
3.898574869e-05
4.127764987e-05
4.082408122e-05
3.991345147e-05
4.037383042e-05
3.589352491e-05
3.636789552e-05
3.731168545e-05
3.684006879e-05
3.919168012e-05
3.872311936e-05
3.77837714e-05
3.825492968e-05
2.610731826e-05
2.562353075e-05
2.835961277e-05
2.884739661e-05
1.76751073e-05
2.067444984e-05
1.715611324e-05
2.09924001e-05
2.212411891e-05
2.17179404e-05
1.116685235e-05
1.150798562e-05
1.279222852e-05
1.235729542e-05
1.602746306e-05
1.655011874e-05
2.464667159e-05
2.513535765e-05
2.980907448e-05
2.933161522e-05
3.166440001e-05
3.120597103e-05
3.028074934e-05
3.074645429e-05
3.359164111e-05
3.404613017e-05
3.496933641e-05
3.450696386e-05
3.682994793e-05
3.636685142e-05
3.54357544e-05
3.590115011e-05
4.771801105e-05
4.849150719e-05
5.017109652e-05
4.939187056e-05
4.747727871e-05
4.820055983e-05
4.986317072e-05
4.915618774e-05
4.601527326e-05
4.635255755e-05
4.721100413e-05
4.688310219e-05
4.889919728e-05
4.858354805e-05
4.773957335e-05
4.805378558e-05
4.488723789e-05
4.530873775e-05
4.6189758e-05
4.577033906e-05
4.792436812e-05
4.752092354e-05
4.665853703e-05
4.707100743e-05
4.355029523e-05
4.391955736e-05
4.479935524e-05
4.443610305e-05
4.657392856e-05
4.62118187e-05
4.532802996e-05
4.569862358e-05
4.172688932e-05
4.21788427e-05
4.307603012e-05
4.262390939e-05
4.48634346e-05
4.44176876e-05
4.352476026e-05
4.397657176e-05
3.966071745e-05
4.012657155e-05
4.104867185e-05
4.058824197e-05
4.285295654e-05
4.24063328e-05
4.150489985e-05
4.195804286e-05
3.729432865e-05
3.775780351e-05
3.868257409e-05
3.822145663e-05
4.053043085e-05
4.006869858e-05
3.914581612e-05
3.960699905e-05
2.786961522e-05
2.738076728e-05
2.984540333e-05
3.033479152e-05
2.002622568e-05
2.243082599e-05
1.957162203e-05
2.29308589e-05
2.414824121e-05
2.351293369e-05
1.375442571e-05
1.434806836e-05
1.542393693e-05
1.487140162e-05
1.843535392e-05
1.889917075e-05
2.638949627e-05
2.688630411e-05
3.129702236e-05
3.082055628e-05
3.313694833e-05
3.268439832e-05
3.176463724e-05
3.2226435e-05
3.468394061e-05
3.513546835e-05
3.604665108e-05
3.558988828e-05
3.787514652e-05
3.742134868e-05
3.650553481e-05
3.696329441e-05
5.080036499e-05
5.148760101e-05
5.311610585e-05
5.2398158e-05
4.941130101e-05
4.973129762e-05
5.055074871e-05
5.023723497e-05
5.217603757e-05
5.186527051e-05
5.105567107e-05
5.136826803e-05
4.83906515e-05
4.87979014e-05
4.96231296e-05
4.922362859e-05
5.128808698e-05
5.08906196e-05
5.006427818e-05
5.046403385e-05
4.709958012e-05
4.745615297e-05
4.832257764e-05
4.797357542e-05
5.001997124e-05
4.967981295e-05
4.883705333e-05
4.918454215e-05
4.530266597e-05
4.574454215e-05
4.661508137e-05
4.617647937e-05
4.835416621e-05
4.791732863e-05
4.704878302e-05
4.748728679e-05
4.329793228e-05
4.374194032e-05
4.462930519e-05
4.418450408e-05
4.639287727e-05
4.595550126e-05
4.507397171e-05
4.551684106e-05
4.099261423e-05
4.145136336e-05
4.236224049e-05
4.19082935e-05
4.414733849e-05
4.37060371e-05
4.281405927e-05
4.326093767e-05
3.833103983e-05
3.878579446e-05
3.969535101e-05
3.924239354e-05
4.151555186e-05
4.106088818e-05
4.015079685e-05
4.060476567e-05
2.935327393e-05
2.886028233e-05
3.095569991e-05
3.14450117e-05
2.199563824e-05
2.429621236e-05
2.144137397e-05
2.471463449e-05
2.588759162e-05
2.537565888e-05
1.622667878e-05
1.657205212e-05
1.776243334e-05
1.728855386e-05
2.02899555e-05
2.08557467e-05
2.786113328e-05
2.836156273e-05
3.240409933e-05
3.192993609e-05
3.423464659e-05
3.378352994e-05
3.287001164e-05
3.332906999e-05
3.543412095e-05
3.588106847e-05
3.678296343e-05
3.633189772e-05
3.858599666e-05
3.813779767e-05
3.723540067e-05
3.768695751e-05
5.266652806e-05
5.296664312e-05
5.376213448e-05
5.345635509e-05
5.502564454e-05
5.423722905e-05
5.453299673e-05
5.17247172e-05
5.211490134e-05
5.290604167e-05
5.253464769e-05
5.449009768e-05
5.412101746e-05
5.333500667e-05
5.370986764e-05
5.052338383e-05
5.086160309e-05
5.166694609e-05
5.133067316e-05
5.332319779e-05
5.299511395e-05
5.216948193e-05
5.25113137e-05
4.878596519e-05
4.922111475e-05
5.007355503e-05
4.9645525e-05
5.173484897e-05
5.131942089e-05
5.049074025e-05
5.091093772e-05
4.682704457e-05
4.7258618e-05
4.811426334e-05
4.768648796e-05
4.981712846e-05
4.939187784e-05
4.854100553e-05
4.896743849e-05
4.458823969e-05
4.502619777e-05
4.590287062e-05
4.546492346e-05
4.764349069e-05
4.721328514e-05
4.634251673e-05
4.6778674e-05
4.197120506e-05
4.242386058e-05
4.332628669e-05
4.287629417e-05
4.509507562e-05
4.465713937e-05
4.377290679e-05
4.421584163e-05
3.90348323e-05
3.948486847e-05
4.038249608e-05
3.993428618e-05
4.218252434e-05
4.173191701e-05
4.083165186e-05
4.128094952e-05
3.046322672e-05
2.996873081e-05
3.172194556e-05
3.220855433e-05
2.373831012e-05
2.575783765e-05
2.316453174e-05
2.630302333e-05
2.735337148e-05
2.683657476e-05
1.794734817e-05
1.854466245e-05
1.970759513e-05
1.913444612e-05
2.199025948e-05
2.2575603e-05
2.896564547e-05
2.946893983e-05
3.316314542e-05
3.269040826e-05
3.498598016e-05
3.453756653e-05
3.36280209e-05
3.408544217e-05
3.590493361e-05
3.635061512e-05
3.724477574e-05
3.679727524e-05
3.903023025e-05
3.858537821e-05
3.769267278e-05
3.813926014e-05
5.489815521e-05
5.526326277e-05
5.604000398e-05
5.566928667e-05
5.720429544e-05
5.64425136e-05
5.679832975e-05
5.3805059e-05
5.413822146e-05
5.491884076e-05
5.460075045e-05
5.646666614e-05
5.615603368e-05
5.538891855e-05
5.570513895e-05
5.214448538e-05
5.255777069e-05
5.336183312e-05
5.295389929e-05
5.498428072e-05
5.458245141e-05
5.377566413e-05
5.418470391e-05
5.024187703e-05
5.066539597e-05
5.150282232e-05
5.108514597e-05
5.313434667e-05
5.272907219e-05
5.191545642e-05
5.232246622e-05
4.807215373e-05
4.849537436e-05
4.933705713e-05
4.891790741e-05
5.100719136e-05
5.059134128e-05
4.97567562e-05
5.017413059e-05
4.553202962e-05
4.596656436e-05
4.68348444e-05
4.640105544e-05
4.855623411e-05
4.813026317e-05
4.726902989e-05
4.770065425e-05
4.263349547e-05
4.308197094e-05
4.397693192e-05
4.353038094e-05
4.5734585e-05
4.529912258e-05
4.442036879e-05
4.486068428e-05
3.947510413e-05
3.992123675e-05
4.081201405e-05
4.036771861e-05
4.259783236e-05
4.215039007e-05
4.12575173e-05
4.170280954e-05
3.122878843e-05
3.073467815e-05
3.220639337e-05
3.269134686e-05
2.519838563e-05
2.68485328e-05
2.46340951e-05
2.739569754e-05
2.845416384e-05
2.793190106e-05
1.966512355e-05
2.025023423e-05
2.141108052e-05
2.08344718e-05
2.347354894e-05
2.404741281e-05
2.973020855e-05
3.023455793e-05
3.364009535e-05
3.316825314e-05
3.54596923e-05
3.50124028e-05
3.410523641e-05
3.456251579e-05
3.616798494e-05
3.661132723e-05
3.750120231e-05
3.705674317e-05
3.927638318e-05
3.883469617e-05
3.794633085e-05
3.83902152e-05
5.69185213e-05
5.722489004e-05
5.79879561e-05
5.767337279e-05
5.919221076e-05
5.843479448e-05
5.874190538e-05
5.537841935e-05
5.577698903e-05
5.655483983e-05
5.616298586e-05
5.807547132e-05
5.769730342e-05
5.693874482e-05
5.732498175e-05
5.353782035e-05
5.394131222e-05
5.474452701e-05
5.434245031e-05
5.633151159e-05
5.593855894e-05
5.514334043e-05
5.554341624e-05
5.142421287e-05
5.183870235e-05
5.266196604e-05
5.225211135e-05
5.426959251e-05
5.387125566e-05
5.306913226e-05
5.347013939e-05
4.897891995e-05
4.939804057e-05
5.022858386e-05
4.981477105e-05
5.187347415e-05
5.146421609e-05
5.064216384e-05
5.105331729e-05
4.616872684e-05
4.660071863e-05
4.746290142e-05
4.703227387e-05
4.916907346e-05
4.874691876e-05
4.789288505e-05
4.832081322e-05
4.304537288e-05
4.34911999e-05
4.437984899e-05
4.393657582e-05
4.613141937e-05
4.569758676e-05
4.48216997e-05
4.526068005e-05
3.971983824e-05
4.016220919e-05
4.104956315e-05
4.060677384e-05
4.282640293e-05
4.238208203e-05
4.149300366e-05
4.193613495e-05
3.17152917e-05
3.12207776e-05
3.247948553e-05
3.296039358e-05
2.628910806e-05
2.760831012e-05
2.572425365e-05
2.815542757e-05
2.921593841e-05
2.869176205e-05
2.114748713e-05
2.173137727e-05
2.289272925e-05
2.231601138e-05
2.457464507e-05
2.515047163e-05
3.02170447e-05
3.07226328e-05
3.390624624e-05
3.343684511e-05
3.572378046e-05
3.527763693e-05
3.437123451e-05
3.482778266e-05
3.62916835e-05
3.673486572e-05
3.762171036e-05
3.717847721e-05
3.93932678e-05
3.895070768e-05
3.806538007e-05
3.850854773e-05
5.844677435e-05
5.882428377e-05
5.957185203e-05
5.919298928e-05
6.06965732e-05
5.994508683e-05
6.032482634e-05
5.672105181e-05
5.711022823e-05
5.787968985e-05
5.749476259e-05
5.938475442e-05
5.901381155e-05
5.826217239e-05
5.864109335e-05
5.466776929e-05
5.506365778e-05
5.585421604e-05
5.54600083e-05
5.741724453e-05
5.70306147e-05
5.624810001e-05
5.663918273e-05
5.228347436e-05
5.269162284e-05
5.3503245e-05
5.309873086e-05
5.50937948e-05
5.470010728e-05
5.390602746e-05
5.430341116e-05
4.958869249e-05
5.000382225e-05
5.082716962e-05
5.041710028e-05
5.245482316e-05
5.204988702e-05
5.123650772e-05
5.164376489e-05
4.656369492e-05
4.699378769e-05
4.78514703e-05
4.742326928e-05
4.954789256e-05
4.912770237e-05
4.827889643e-05
4.87041325e-05
4.327276838e-05
4.371636169e-05
4.460231139e-05
4.416075171e-05
4.634964716e-05
4.591675679e-05
4.504253957e-05
4.548086872e-05
3.98328084e-05
4.027553587e-05
4.116068521e-05
4.071744115e-05
4.293425081e-05
4.249061385e-05
4.160326716e-05
4.204592187e-05
3.198872582e-05
3.149509939e-05
3.260734957e-05
3.308846135e-05
2.704980761e-05
2.809653597e-05
2.648538612e-05
2.864238195e-05
2.970282549e-05
2.917768143e-05
2.224999844e-05
2.283318463e-05
2.39945366e-05
2.341685286e-05
2.533669249e-05
2.591268094e-05
3.049189218e-05
3.099593596e-05
3.403457231e-05
3.356390516e-05
3.584808655e-05
3.540260514e-05
3.44969485e-05
3.495259443e-05
3.633953747e-05
3.67817629e-05
3.766715963e-05
3.72247232e-05
3.943491174e-05
3.899548392e-05
3.811025454e-05
3.85522435e-05
5.975381282e-05
6.012341692e-05
6.086439316e-05
6.049239164e-05
6.198127812e-05
6.123630737e-05
6.160938938e-05
5.780224456e-05
5.818426143e-05
5.894675269e-05
5.856639837e-05
6.04401248e-05
6.00728672e-05
5.932671411e-05
5.970152415e-05
5.54869257e-05
5.587820124e-05
5.665863864e-05
5.62691348e-05
5.82005232e-05
5.781786604e-05
5.704589421e-05
5.743122892e-05
5.285975203e-05
5.326342944e-05
5.40665169e-05
5.366586265e-05
5.564473395e-05
5.525399683e-05
5.446553405e-05
5.486087684e-05
4.996429925e-05
5.037743176e-05
5.119575872e-05
5.078757385e-05
5.281249105e-05
5.241050167e-05
5.16028158e-05
5.200733358e-05
4.678083496e-05
4.720965444e-05
4.806470315e-05
4.763778998e-05
4.975460251e-05
4.933618766e-05
4.849043398e-05
4.891429853e-05
4.337877908e-05
4.382195766e-05
4.470635758e-05
4.426513624e-05
4.645142326e-05
4.601896944e-05
4.514579632e-05
4.558345972e-05
3.987691161e-05
4.03163358e-05
4.12014233e-05
4.075901961e-05
4.297508713e-05
4.253151201e-05
4.164533675e-05
4.20877841e-05
3.211930016e-05
3.162606299e-05
3.265406485e-05
3.31350202e-05
2.753937224e-05
2.837416469e-05
2.697591663e-05
2.891826625e-05
2.997753109e-05
2.945391861e-05
2.301375571e-05
2.359631435e-05
2.475754445e-05
2.417909855e-05
2.582973502e-05
2.640423372e-05
3.062146789e-05
3.112638296e-05
3.408181146e-05
3.361326526e-05
3.589579137e-05
3.544978244e-05
3.454482794e-05
3.49991351e-05
3.635172834e-05
3.679387009e-05
3.767931048e-05
3.723695772e-05
3.944811397e-05
3.900672891e-05
3.812216528e-05
3.856437615e-05
6.080687308e-05
6.11721407e-05
6.190707791e-05
6.153946742e-05
6.301463873e-05
6.227662379e-05
6.264584226e-05
5.858056829e-05
5.895921277e-05
5.971528299e-05
5.933765351e-05
6.12008007e-05
6.083483095e-05
6.009227582e-05
6.046514318e-05
5.603459795e-05
5.642247925e-05
5.719512046e-05
5.681048788e-05
5.872079782e-05
5.834136027e-05
5.757771578e-05
5.795925244e-05
5.321424032e-05
5.36147345e-05
5.441229587e-05
5.401439557e-05
5.598281496e-05
5.559346755e-05
5.480854452e-05
5.520202831e-05
5.016976502e-05
5.058099487e-05
5.139664063e-05
5.099021655e-05
5.300704652e-05
5.260673788e-05
5.180251173e-05
5.220524326e-05
4.688195986e-05
4.731039371e-05
4.816413639e-05
4.773794717e-05
4.985035048e-05
4.943281601e-05
4.85891178e-05
4.901199281e-05
4.341879321e-05
4.38609386e-05
4.474538218e-05
4.430465924e-05
4.648973118e-05
4.605760114e-05
4.518516289e-05
4.562228423e-05
3.988686512e-05
4.032767902e-05
4.121173697e-05
4.076920595e-05
4.298597196e-05
4.254255327e-05
4.165613791e-05
4.209918552e-05
3.216729601e-05
3.167429895e-05
3.26646732e-05
3.314731657e-05
2.781900184e-05
2.850772216e-05
2.725670493e-05
2.905053771e-05
3.010880391e-05
2.95855898e-05
2.35089592e-05
2.409005538e-05
2.525045056e-05
2.467246304e-05
2.611246236e-05
2.668665184e-05
3.067041325e-05
3.117524102e-05
3.409440615e-05
3.362388452e-05
3.590825145e-05
3.54628246e-05
3.455632032e-05
3.501265019e-05
3.635243047e-05
3.679474321e-05
3.768080205e-05
3.723780901e-05
3.944955824e-05
3.900912998e-05
3.812315845e-05
3.856553303e-05
6.15656827e-05
6.192924775e-05
6.265971751e-05
6.229420978e-05
6.376079546e-05
6.302757538e-05
6.339377433e-05
5.909788888e-05
5.947415775e-05
6.02248183e-05
5.984953168e-05
6.170595589e-05
6.134028081e-05
6.059976658e-05
6.097162259e-05
5.636999413e-05
5.675589637e-05
5.752419747e-05
5.714244617e-05
5.903840429e-05
5.866172432e-05
5.790392242e-05
5.828178109e-05
5.340720963e-05
5.380600851e-05
5.459987733e-05
5.420388698e-05
5.616561975e-05
5.577755655e-05
5.499445979e-05
5.538668483e-05
5.026427971e-05
5.067555321e-05
5.148992204e-05
5.108376718e-05
5.309684639e-05
5.269718167e-05
5.189414514e-05
5.229667295e-05
4.69202605e-05
4.734858885e-05
4.820165486e-05
4.777583672e-05
4.988627916e-05
4.94694832e-05
4.862650894e-05
4.904901289e-05
4.343003093e-05
4.387179069e-05
4.475707101e-05
4.431547495e-05
4.650117626e-05
4.606895891e-05
4.519616778e-05
4.563375842e-05
3.988955723e-05
4.03297272e-05
4.121405073e-05
4.077126869e-05
4.298894055e-05
4.25441649e-05
4.165767314e-05
4.210100451e-05
3.217826088e-05
3.168593685e-05
3.266555723e-05
3.314757851e-05
2.795343244e-05
2.855766434e-05
2.739277261e-05
2.910070179e-05
3.015700167e-05
2.963536826e-05
2.379470243e-05
2.437590774e-05
2.553526065e-05
2.49569639e-05
2.625062916e-05
2.682382728e-05
3.068281148e-05
3.118712993e-05
3.409336205e-05
3.362530697e-05
3.590939741e-05
3.54646545e-05
3.455801925e-05
3.501411993e-05
6.206989201e-05
6.243260577e-05
6.316088547e-05
6.279633817e-05
6.425575702e-05
6.352679338e-05
6.389302871e-05
5.941407289e-05
5.978902482e-05
6.053549441e-05
6.016239786e-05
6.20132123e-05
6.164806837e-05
6.090868555e-05
6.127975212e-05
5.655103087e-05
5.6935045e-05
5.770166172e-05
5.732010322e-05
5.920967305e-05
5.883389895e-05
5.807943671e-05
5.845695341e-05
5.349622006e-05
5.389423313e-05
5.468679592e-05
5.42913258e-05
5.624936603e-05
5.586208135e-05
5.508063623e-05
5.547197361e-05
5.03001429e-05
5.071114356e-05
5.152471203e-05
5.111958671e-05
5.313054135e-05
5.273160787e-05
5.192887329e-05
5.233099728e-05
4.693151277e-05
4.735981202e-05
4.821312177e-05
4.778710354e-05
4.989718218e-05
4.948052083e-05
4.863797221e-05
4.906059257e-05
4.343178443e-05
4.38745119e-05
4.475904279e-05
4.431777052e-05
4.650380652e-05
4.607150186e-05
4.519854338e-05
4.563621042e-05
3.217810081e-05
3.168450348e-05
2.800476432e-05
2.856945503e-05
2.744398807e-05
2.911144111e-05
3.016860865e-05
2.964642044e-05
2.393548311e-05
2.451572982e-05
2.567356751e-05
2.509608385e-05
2.630318704e-05
2.687559572e-05
3.068121077e-05
3.118587119e-05
6.237713387e-05
6.273941108e-05
6.346587179e-05
6.310233584e-05
6.455866969e-05
6.383167783e-05
6.419568672e-05
5.958447946e-05
5.995809988e-05
6.070280506e-05
6.033075624e-05
6.217836199e-05
6.181328354e-05
6.107507215e-05
6.144530926e-05
5.663462071e-05
5.701759073e-05
5.778248305e-05
5.740177585e-05
5.928903192e-05
5.891394176e-05
5.816088378e-05
5.853724724e-05
5.352956941e-05
5.392721869e-05
5.471937402e-05
5.432405305e-05
5.627999417e-05
5.58933134e-05
5.511245035e-05
5.550410424e-05
5.031052569e-05
5.072146814e-05
5.153527673e-05
5.112987128e-05
5.314100054e-05
5.274215073e-05
5.193926336e-05
5.234142736e-05
4.69340448e-05
4.736266419e-05
4.821613038e-05
4.779000301e-05
4.989934678e-05
4.948283458e-05
4.864071161e-05
4.906287359e-05
2.801544724e-05
2.856638093e-05
2.745519851e-05
2.911006231e-05
3.016717346e-05
2.964400483e-05
2.398990546e-05
2.456926632e-05
2.572629637e-05
2.514899461e-05
2.631486132e-05
2.688691529e-05
6.254231266e-05
6.290492456e-05
6.363142165e-05
6.326771108e-05
6.472233508e-05
6.399656559e-05
6.43604144e-05
5.966249591e-05
6.003615272e-05
6.077949365e-05
6.04073357e-05
6.22534717e-05
6.188861153e-05
6.115095312e-05
6.152081914e-05
5.666542711e-05
5.704894647e-05
5.781189975e-05
5.743106158e-05
5.931817577e-05
5.894362403e-05
5.819055514e-05
5.856687858e-05
5.353947563e-05
5.393717584e-05
5.472910561e-05
5.433407205e-05
5.628899453e-05
5.590328874e-05
5.512245116e-05
5.551381037e-05
5.0312854e-05
5.072380372e-05
5.153753227e-05
5.113185034e-05
5.31434307e-05
5.274415162e-05
5.194103505e-05
5.234326454e-05
2.80134991e-05
2.745198981e-05
2.400334779e-05
2.458224117e-05
2.573888924e-05
2.516200766e-05
2.63117945e-05
2.688407403e-05
6.261752424e-05
6.298019434e-05
6.37070043e-05
6.334311911e-05
6.479745207e-05
6.407235196e-05
6.44356769e-05
5.969226186e-05
6.006452168e-05
6.080773892e-05
6.043638859e-05
6.228116399e-05
6.191666762e-05
6.117943849e-05
6.154888979e-05
5.667415098e-05
5.705762669e-05
5.782097287e-05
5.743978545e-05
5.932722706e-05
5.895234062e-05
5.819914441e-05
5.85760281e-05
5.354221867e-05
5.393983884e-05
5.473166675e-05
5.433664774e-05
5.629130465e-05
5.590569708e-05
5.512468124e-05
5.551672803e-05
2.400252197e-05
2.458141898e-05
2.573690108e-05
2.516038148e-05
6.264503463e-05
6.300792302e-05
6.373487122e-05
6.337112427e-05
6.482528261e-05
6.409960042e-05
6.446290354e-05
5.969957056e-05
6.00726089e-05
6.081646643e-05
6.044375914e-05
6.22891821e-05
6.192554429e-05
6.118851161e-05
6.155789742e-05
5.667603546e-05
5.705990043e-05
5.782361404e-05
5.744231748e-05
5.932939894e-05
5.895538197e-05
5.820226579e-05
5.857862561e-05
6.265284901e-05
6.30150098e-05
6.374223449e-05
6.337893137e-05
6.483221659e-05
6.410604692e-05
6.446895713e-05
5.970164784e-05
6.007338743e-05
6.081891843e-05
6.044590191e-05
6.22914813e-05
6.192755973e-05
6.11912692e-05
6.156079326e-05
6.265367847e-05
6.30164941e-05
6.374405348e-05
6.338008097e-05
6.48326677e-05
6.410692004e-05
6.446951011e-05
0.0001463428198
0.0001463246299
0.0001461785869
0.0001462968357
0.0001461562351
0.0001460146595
0.0001462444634
0.0001461262873
0.0001459921768
0.000145784812
0.000146145132
0.0001460712228
0.0001459560444
0.0001457703765
0.0001454312442
0.0001459625782
0.0001459630439
0.0001458987826
0.0001457351027
0.0001454102603
0.0001450551645
0.000145656275
0.0001457727776
0.000145789978
0.0001456770115
0.0001453819423
0.0001450447598
0.000144688267
0.0001451857679
0.0001454570447
0.0001455993479
0.0001455721213
0.0001453294972
0.0001450214186
0.0001446710376
0.0001443381916
0.0001445097878
0.0001449777483
0.0001452848228
0.000145389713
0.0001452292054
0.0001449745032
0.0001446449605
0.0001443216315
0.0001440073829
0.0001436079474
0.0001443026995
0.0001448105759
0.0001450913987
0.0001450503478
0.0001448775438
0.0001446006499
0.0001442928478
0.0001439859043
0.0001436834864
0.0001426812087
0.000143461948
0.0001441464119
0.0001446416718
0.0001447527029
0.0001446985843
0.0001445090893
0.0001442478679
0.0001439598709
0.0001436677703
0.0001433606958
0.0001420331246
0.0001412727725
0.0001432792342
0.0001439993066
0.0001443005604
0.0001443949877
0.0001443372021
0.0001441627974
0.00014391492
0.000143639918
0.0001433407888
0.000143032652
0.0001406644005
0.0001411952253
0.0001393962593
0.0001431265555
0.0001436600287
0.0001439303887
0.0001440432679
0.0001440022461
0.0001438255567
0.0001435959275
0.0001433168945
0.0001430175325
0.0001427074312
0.0001396730368
0.0001385575888
0.0001403977076
0.0001421841589
0.0001370970713
0.000142860823
0.0001432731224
0.0001435881713
0.0001437252213
0.0001436587918
0.0001435072336
0.0001432733989
0.0001429923432
0.0001426949311
0.0001423627982
0.0001389977551
0.0001377279259
0.0001362252806
0.0001415337319
0.0001393339189
0.000134014088
0.0001424463844
0.0001429446711
0.0001432928839
0.0001433740836
0.0001433417783
0.0001431898709
0.0001429472322
0.0001426684612
0.0001423430513
0.000141958677
0.0001363369811
0.0001376263535
0.0001350312086
0.0001408652606
0.0001379620662
0.0001310087246
0.0001330363011
0.00014210261
0.0001426705858
0.0001429370168
0.0001430625271
0.0001430344273
0.0001428588293
0.0001426187519
0.0001423127105
0.0001419462205
0.0001414806757
0.0001343754411
0.0001346381032
0.0001361048489
0.0001395770523
0.0001365797943
0.0001260970603
0.0001296824921
0.0001307916827
0.0001418169413
0.0001423165668
0.0001426330273
0.0001427712559
0.0001426944364
0.0001425220398
0.0001422595815
0.0001419109176
0.0001414600702
0.0001409887482
0.000131853827
0.0001346313657
0.0001387118245
0.0001408528915
0.0001355033601
0.0001234126539
0.000127848165
0.0001285726321
0.0001415479201
0.0001420295157
0.0001423674403
0.0001424175716
0.0001423436479
0.0001421592169
0.0001418570464
0.0001414335857
0.0001409756223
0.0001404971699
0.0001337081922
0.0001296436385
0.0001379020541
0.0001401027548
0.0001335648849
0.0001258598058
0.0001207225796
0.0001258076809
0.0001412400161
0.0001417822205
0.0001419928158
0.0001420450426
0.0001419788605
0.000141759243
0.0001413841819
0.0001409542165
0.0001404819632
0.0001400013571
0.0001283163001
0.0001364897471
0.0001391363621
0.0001350812672
0.0001315165719
0.0001178663661
0.0001150643511
0.0001226632448
0.0001409527467
0.0001413876889
0.0001415901206
0.0001416810264
0.0001415869338
0.000141288896
0.0001409109245
0.0001404563955
0.0001399861649
0.0001395112922
0.0001266245818
0.0001380463946
0.0001400036563
0.0001368478843
0.00013369933
0.00013284944
0.0001295392576
0.0001155701029
0.0001120310917
0.0001073908352
0.000120174147
0.0001249339402
0.000140629767
0.0001409549732
0.0001412319252
0.0001413071586
0.0001411196135
0.0001408226672
0.0001404151117
0.0001399638713
0.0001395001163
0.0001390318503
0.0001392787381
0.000138316871
0.0001354965643
0.0001319117146
0.0001348692749
0.0001279263233
0.0001313402026
0.0001124395349
0.0001090946535
0.0001033184308
0.0001173931523
0.0001235961245
0.0001222597493
0.0001401625632
0.0001406034571
0.0001408864919
0.0001408417447
0.0001406577794
0.0001403317292
0.0001399247267
0.0001394815481
0.0001390255493
0.0001385425858
0.0001373158884
0.0001397589222
0.0001340324234
0.0001366460347
0.0001312731038
0.0001262482838
0.0001328917569
0.0001077787383
0.0001076288681
9.935737762e-05
0.0001142217225
0.0001192305135
0.0001204557047
0.0001248102635
0.0001402828493
0.0001404198265
0.0001403799106
0.0001401763875
0.0001398477762
0.0001394443534
0.0001390081597
0.0001385324867
0.000138045667
0.0001384014613
0.000139413547
0.0001357401634
0.0001377112058
0.0001292932284
0.0001329187944
0.0001336427085
0.0001349725208
0.0001116867061
0.0001024653538
9.58917517e-05
0.0001189154864
0.0001214756776
0.0001233034855
0.0001272651716
0.00013981745
0.0001399517641
0.0001399126922
0.0001397042943
0.0001393675338
0.0001389710233
0.0001385112846
0.000138029267
0.0001375412248
0.0001390494581
0.0001370808313
0.0001385767682
0.0001318689901
0.0001307541825
0.0001343420445
0.0001352057589
0.0001361028553
0.0001160239772
0.0001081848459
9.84891085e-05
0.0001057553745
9.23877451e-05
0.0001221479761
0.0001207437454
0.000124032129
0.0001258237171
0.0001283434394
0.0001291956723
0.0001393463463
0.0001395087747
0.0001394626888
0.0001392231497
0.0001388925011
0.0001384691277
0.0001380020258
0.0001375247521
0.0001370169775
0.0001381895418
0.0001335104898
0.0001322575263
0.000135397946
0.0001360752212
0.0001368586672
0.0001177075465
0.0001132371181
0.0001192631898
9.463285824e-05
0.0001015730522
0.000103367187