/*--------------------------------*- C++ -*----------------------------------*\
  =========                 |
  \\      /  F ield         | OpenFOAM: The Open Source CFD Toolbox
   \\    /   O peration     | Website:  https://openfoam.org
    \\  /    A nd           | Version:  8
     \\/     M anipulation  |
\*---------------------------------------------------------------------------*/






FoamFile
{
    version     2.0;
    format      ascii;
    class       volSymmTensorField;
    location    "0";
    object      TauDDES;
}
// * * * * * * * * * * * * * * * * * * * * * * * * * * * * * * * * * * * * * //

dimensions      [0 2 -2 0 0 0 0];


internalField   nonuniform List<symmTensor>
18819
(
( 4.195664224e-05 -1.549888475e-05 -9.236792948e-07 3.066250429e-05 -2.082624064e-07 3.623992234e-05 )
( 4.152450128e-05 -1.539878394e-05 -9.649177173e-07 3.026420382e-05 -1.03486002e-07 3.534448115e-05 )
( 3.811181523e-05 -1.229418194e-05 -1.565102025e-06 2.721185047e-05 -2.891957251e-08 3.535598808e-05 )
( 3.763862333e-05 -1.206524303e-05 -1.488617386e-06 2.664893145e-05 -1.656639981e-08 3.456784543e-05 )
( 4.131263267e-05 -1.53385954e-05 -1.049915454e-06 2.97261995e-05 2.973856184e-08 3.46129018e-05 )
( 3.825385284e-05 -1.222664287e-05 -1.757163318e-06 2.77181789e-05 1.214512579e-08 3.646664118e-05 )
( 3.559059041e-05 -9.727797078e-06 -1.784830374e-06 2.409379704e-05 6.362148497e-08 3.548485256e-05 )
( 3.552813359e-05 -9.754518942e-06 -1.749229909e-06 2.389466317e-05 6.911056971e-08 3.513065167e-05 )
( 3.731576362e-05 -1.191664978e-05 -1.42131853e-06 2.617371138e-05 2.446993719e-09 3.401717549e-05 )
( 3.530628237e-05 -9.633569789e-06 -1.691944931e-06 2.353528726e-05 5.070243958e-08 3.476529309e-05 )
( 3.520823884e-05 -9.603882972e-06 -1.641979225e-06 2.335022873e-05 1.814091632e-08 3.454876787e-05 )
( 4.086014815e-05 -1.509004596e-05 -1.104784474e-06 2.903159475e-05 6.629125693e-08 3.39448161e-05 )
( 3.588318577e-05 -9.753022823e-06 -1.845631346e-06 2.479356044e-05 7.139067293e-08 3.666736666e-05 )
( 3.579298573e-05 -9.802839486e-06 -1.83237853e-06 2.453371599e-05 5.567529371e-08 3.610156273e-05 )
( 3.793362703e-05 -1.177134436e-05 -1.819930276e-06 2.776175825e-05 7.663099666e-08 3.735891005e-05 )
( 3.973893035e-05 -1.337317735e-05 -1.782961021e-06 2.948758993e-05 4.221929117e-08 3.747802475e-05 )
( 3.395102976e-05 -7.40298583e-06 -1.646739861e-06 2.035930629e-05 9.409667001e-08 3.623168959e-05 )
( 3.378708425e-05 -7.520335203e-06 -1.627311121e-06 2.03877371e-05 1.10313799e-07 3.570590343e-05 )
( 3.722008478e-05 -1.194061133e-05 -1.405316198e-06 2.595563819e-05 -1.277004902e-08 3.348986138e-05 )
( 3.510914394e-05 -9.585675798e-06 -1.57385989e-06 2.316642895e-05 3.899094381e-09 3.427188494e-05 )
( 3.527911758e-05 -9.818681065e-06 -1.553996981e-06 2.341848085e-05 -9.373342102e-09 3.404484232e-05 )
( 3.364746226e-05 -7.4936479e-06 -1.572934934e-06 2.011088145e-05 8.393845263e-08 3.539882528e-05 )
( 3.351391206e-05 -7.457851098e-06 -1.516933594e-06 1.985140625e-05 3.249354918e-08 3.514042692e-05 )
( 4.047918628e-05 -1.485355097e-05 -1.140362656e-06 2.843208313e-05 9.532483602e-08 3.323151395e-05 )
( 3.429819117e-05 -7.419469057e-06 -1.772483074e-06 2.100717757e-05 8.424132147e-08 3.732524056e-05 )
( 3.596095121e-05 -9.676900845e-06 -1.853376375e-06 2.51013189e-05 1.142145436e-07 3.745256618e-05 )
( 3.410625868e-05 -7.396375622e-06 -1.721341505e-06 2.066800516e-05 6.975137978e-08 3.674118852e-05 )
( 3.803165237e-05 -1.156445705e-05 -1.835226044e-06 2.81358225e-05 1.457061103e-07 3.847612243e-05 )
( 4.025721864e-05 -1.349440663e-05 -1.808339675e-06 3.031640881e-05 9.520886124e-08 3.877035488e-05 )
( 3.337945964e-05 -5.847098237e-06 -1.437455012e-06 1.741548476e-05 1.084387193e-07 3.725163697e-05 )
( 3.331644257e-05 -5.98217639e-06 -1.417531848e-06 1.75359819e-05 1.253487909e-07 3.693646067e-05 )
( 3.312914851e-05 -6.21606705e-06 -1.423124331e-06 1.786251596e-05 1.257394757e-07 3.629743151e-05 )
( 3.320722317e-05 -6.021371519e-06 -1.400397878e-06 1.758135113e-05 1.352558883e-07 3.663896132e-05 )
( 3.699621084e-05 -1.178071398e-05 -1.375958277e-06 2.539052184e-05 2.820400802e-09 3.281363024e-05 )
( 3.53459327e-05 -9.972449334e-06 -1.569121423e-06 2.355104152e-05 -2.481568018e-08 3.375944289e-05 )
( 3.531163748e-05 -9.99164331e-06 -1.589771045e-06 2.348349517e-05 -2.725045434e-08 3.349602775e-05 )
( 3.340010517e-05 -7.419764643e-06 -1.480538572e-06 1.96142646e-05 -1.806872429e-09 3.488969014e-05 )
( 3.33809985e-05 -7.411404567e-06 -1.511143864e-06 1.944947508e-05 -3.448781527e-08 3.459715299e-05 )
( 3.304703569e-05 -6.182805009e-06 -1.393431376e-06 1.773877193e-05 1.12961601e-07 3.612309229e-05 )
( 3.299145828e-05 -6.21489562e-06 -1.370911718e-06 1.760599844e-05 9.357609088e-08 3.596682291e-05 )
( 3.286176434e-05 -6.192724868e-06 -1.339950245e-06 1.736272134e-05 3.96497768e-08 3.565896259e-05 )
( 3.290587119e-05 -6.181379376e-06 -1.343584927e-06 1.748855357e-05 6.419632115e-08 3.580707562e-05 )
( 4.009187978e-05 -1.459639407e-05 -1.174102977e-06 2.78507905e-05 1.653908015e-07 3.247782297e-05 )
( 3.373405343e-05 -5.848084129e-06 -1.588715122e-06 1.796737888e-05 8.767975146e-08 3.819829362e-05 )
( 3.454086254e-05 -7.268821719e-06 -1.748259592e-06 2.097351899e-05 1.480557899e-07 3.808761176e-05 )
( 3.365821976e-05 -5.974338819e-06 -1.597049504e-06 1.808609704e-05 8.102536242e-08 3.791554263e-05 )
( 3.625911995e-05 -9.607385437e-06 -1.863709485e-06 2.548983684e-05 1.929230535e-07 3.842606748e-05 )
( 3.346778612e-05 -5.966677691e-06 -1.521513582e-06 1.778643309e-05 8.372463611e-08 3.742583795e-05 )
( 3.353834472e-05 -5.825256267e-06 -1.534031185e-06 1.766808418e-05 7.394000079e-08 3.773027856e-05 )
( 3.83106817e-05 -1.127961059e-05 -1.892954401e-06 2.875021528e-05 2.774295638e-07 3.984587966e-05 )
( 4.055228783e-05 -1.327635073e-05 -1.870388587e-06 3.108343299e-05 2.287745957e-07 4.016259481e-05 )
( 3.321296754e-05 -4.770023224e-06 -1.238376854e-06 1.510847596e-05 1.248428845e-07 3.804174776e-05 )
( 3.315826325e-05 -4.641158284e-06 -1.157708539e-06 1.46707207e-05 1.525752964e-07 3.792730422e-05 )
( 3.300643948e-05 -4.777109098e-06 -1.140902782e-06 1.475185309e-05 1.42217047e-07 3.73533403e-05 )
( 3.306729923e-05 -4.763855486e-06 -1.161430077e-06 1.485395751e-05 1.539739429e-07 3.754972568e-05 )
( 3.671601735e-05 -1.16530282e-05 -1.285341114e-06 2.486009544e-05 6.596018665e-08 3.207697227e-05 )
( 3.518441008e-05 -9.902417332e-06 -1.579268428e-06 2.317807957e-05 -1.156923446e-08 3.307966108e-05 )
( 3.512679541e-05 -9.900805708e-06 -1.528758844e-06 2.301609129e-05 1.52238222e-10 3.278933218e-05 )
( 3.332160122e-05 -7.450585144e-06 -1.597236746e-06 1.944466021e-05 -3.646426094e-08 3.428269702e-05 )
( 3.318654854e-05 -7.36455786e-06 -1.678663693e-06 1.923361742e-05 -9.37372624e-10 3.397454566e-05 )
( 3.27815651e-05 -6.147236491e-06 -1.326397751e-06 1.725100446e-05 1.887165979e-08 3.55051634e-05 )
( 3.275192284e-05 -6.162002592e-06 -1.344060479e-06 1.712716039e-05 -3.522930836e-09 3.535344877e-05 )
( 3.268510409e-05 -6.080334515e-06 -1.422521791e-06 1.682807488e-05 -4.967466793e-08 3.502798427e-05 )
( 3.270651723e-05 -6.085909263e-06 -1.376682803e-06 1.696708205e-05 -3.024247164e-08 3.518291487e-05 )
( 3.290525274e-05 -4.772675766e-06 -1.120837283e-06 1.462505588e-05 1.270034318e-07 3.711124009e-05 )
( 3.283790647e-05 -4.795105269e-06 -1.114864631e-06 1.452108154e-05 1.129496496e-07 3.693508188e-05 )
( 3.269924127e-05 -4.789562809e-06 -1.122247568e-06 1.429953954e-05 5.616532306e-08 3.657066918e-05 )
( 3.275974086e-05 -4.788700608e-06 -1.112954124e-06 1.439965399e-05 8.143776853e-08 3.672800085e-05 )
( 3.965134238e-05 -1.430550947e-05 -1.131034878e-06 2.733120164e-05 2.43824644e-07 3.184923844e-05 )
( 3.387746619e-05 -5.785243047e-06 -1.577872126e-06 1.792225885e-05 1.269514911e-07 3.856364856e-05 )
( 3.356167508e-05 -4.780640666e-06 -1.390255534e-06 1.55757316e-05 5.615258658e-08 3.889575964e-05 )
( 3.492637916e-05 -7.523264685e-06 -1.807309673e-06 2.199117625e-05 2.336071248e-07 3.871940862e-05 )
( 3.397143519e-05 -5.70528664e-06 -1.57017837e-06 1.793402953e-05 1.666894462e-07 3.881610246e-05 )
( 3.348044265e-05 -4.638016435e-06 -1.328416602e-06 1.51411341e-05 5.16897174e-08 3.885414844e-05 )
( 3.65632477e-05 -9.255876648e-06 -1.901365863e-06 2.579688953e-05 2.814755078e-07 3.957303124e-05 )
( 3.331609332e-05 -4.634134712e-06 -1.252633865e-06 1.489970418e-05 8.902564019e-08 3.844057937e-05 )
( 3.338019815e-05 -4.773949513e-06 -1.326183337e-06 1.538381002e-05 6.025000232e-08 3.848822962e-05 )
( 3.86003012e-05 -1.121989226e-05 -1.885994379e-06 2.906812006e-05 3.822426322e-07 4.030848504e-05 )
( 4.091225128e-05 -1.322087883e-05 -1.846766963e-06 3.153400758e-05 3.673119693e-07 4.085189357e-05 )
( 3.319689858e-05 -3.862385711e-06 -1.018774128e-06 1.286000315e-05 1.196952581e-07 3.861898585e-05 )
( 3.316750008e-05 -3.867973646e-06 -1.003501893e-06 1.282323046e-05 1.367980644e-07 3.853133239e-05 )
( 3.309907333e-05 -3.894778274e-06 -9.684299584e-07 1.26472014e-05 1.656678847e-07 3.823080988e-05 )
( 3.312136323e-05 -3.818149708e-06 -9.61780529e-07 1.243471343e-05 1.607450741e-07 3.836117685e-05 )
( 3.296585419e-05 -3.917577487e-06 -9.504659602e-07 1.244568193e-05 1.403639232e-07 3.776001176e-05 )
( 3.300148819e-05 -3.90977857e-06 -9.521097013e-07 1.248167973e-05 1.47937385e-07 3.785404624e-05 )
( 3.304896745e-05 -3.854654551e-06 -9.574340538e-07 1.263108879e-05 1.658083733e-07 3.806586392e-05 )
( 3.30384355e-05 -3.867727173e-06 -9.579482594e-07 1.260605222e-05 1.601754178e-07 3.799909609e-05 )
( 3.633283268e-05 -1.146117302e-05 -1.142252813e-06 2.434968337e-05 1.273465244e-07 3.145721348e-05 )
( 3.498764272e-05 -9.855828466e-06 -1.436813363e-06 2.273300743e-05 2.706239499e-08 3.239171565e-05 )
( 3.486731293e-05 -9.794227481e-06 -1.351384981e-06 2.247478915e-05 4.715878532e-08 3.213185846e-05 )
( 3.302834739e-05 -7.270407878e-06 -1.700639359e-06 1.89845814e-05 3.327762599e-08 3.367416139e-05 )
( 3.287668369e-05 -7.257641755e-06 -1.622514446e-06 1.885001984e-05 5.475792264e-08 3.339810792e-05 )
( 3.262195969e-05 -6.047638635e-06 -1.480896572e-06 1.679200977e-05 -5.295390082e-08 3.484530316e-05 )
( 3.25793153e-05 -6.080097592e-06 -1.531254725e-06 1.675904059e-05 -3.980959917e-08 3.469164585e-05 )
( 3.24531793e-05 -5.998277629e-06 -1.640527898e-06 1.65283418e-05 6.909502748e-09 3.444185495e-05 )
( 3.250931331e-05 -6.027048585e-06 -1.591084583e-06 1.66797181e-05 -1.763691415e-08 3.454118996e-05 )
( 3.263388862e-05 -4.772720786e-06 -1.139388587e-06 1.417557905e-05 1.457651777e-08 3.637385817e-05 )
( 3.259551522e-05 -4.7749636e-06 -1.16210083e-06 1.408002936e-05 -8.061764589e-09 3.621366704e-05 )
( 3.252206079e-05 -4.738113603e-06 -1.251587832e-06 1.385311316e-05 -5.503531852e-08 3.585871309e-05 )
( 3.254204421e-05 -4.762269327e-06 -1.209158995e-06 1.398247878e-05 -4.396384412e-08 3.599919728e-05 )
( 3.289130836e-05 -3.882547389e-06 -9.498251075e-07 1.242751205e-05 1.339129057e-07 3.760671098e-05 )
( 3.286016727e-05 -3.892297627e-06 -9.525839459e-07 1.239368885e-05 1.262574472e-07 3.751892291e-05 )
( 3.278935765e-05 -3.939818725e-06 -9.652509334e-07 1.22361962e-05 1.111690722e-07 3.730761819e-05 )
( 3.282591206e-05 -3.937745532e-06 -9.610878351e-07 1.227037956e-05 1.165527976e-07 3.739006206e-05 )
( 3.26475747e-05 -3.94818926e-06 -1.00960483e-06 1.201866144e-05 4.928180886e-08 3.692263272e-05 )
( 3.267313878e-05 -3.945859135e-06 -9.997070265e-07 1.205601711e-05 6.061449653e-08 3.699383524e-05 )
( 3.2727301e-05 -3.905814083e-06 -9.780412711e-07 1.221414641e-05 9.220869401e-08 3.717098298e-05 )
( 3.269721492e-05 -3.908902727e-06 -9.850855349e-07 1.217717181e-05 8.144888142e-08 3.709686644e-05 )
( 3.918446964e-05 -1.401216468e-05 -1.063962941e-06 2.687537017e-05 3.732896516e-07 3.148232645e-05 )
( 3.36738085e-05 -4.605480626e-06 -1.366127208e-06 1.524401887e-05 9.258346978e-08 3.925538113e-05 )
( 3.350994302e-05 -3.874930826e-06 -1.174780436e-06 1.323223205e-05 4.085655547e-08 3.945894423e-05 )
( 3.347002348e-05 -3.88636181e-06 -1.161428713e-06 1.323545166e-05 3.100717194e-08 3.938209193e-05 )
( 3.447051131e-05 -6.09943163e-06 -1.646855594e-06 1.920955765e-05 2.578199201e-07 3.933212065e-05 )
( 3.426405601e-05 -6.03655144e-06 -1.635825129e-06 1.882424658e-05 2.290054937e-07 3.906314305e-05 )
( 3.528037996e-05 -7.164549061e-06 -1.770082122e-06 2.197602043e-05 2.74503293e-07 3.957421723e-05 )
( 3.378472684e-05 -4.549437108e-06 -1.373471378e-06 1.524933214e-05 1.420223441e-07 3.946869037e-05 )
( 3.340125841e-05 -3.926124464e-06 -1.125183644e-06 1.313179018e-05 3.269405369e-08 3.920392555e-05 )
( 3.343566641e-05 -3.92384527e-06 -1.139206688e-06 1.314592828e-05 3.430658069e-08 3.92804177e-05 )
( 3.684073454e-05 -9.185454473e-06 -1.898340543e-06 2.600139851e-05 3.246648248e-07 3.990473488e-05 )
( 3.325602302e-05 -3.908922281e-06 -1.044815917e-06 1.289278043e-05 9.140862289e-08 3.87758846e-05 )
( 3.328441744e-05 -3.907209702e-06 -1.059062811e-06 1.293287369e-05 7.557903814e-08 3.886295235e-05 )
( 3.33380558e-05 -3.875195034e-06 -1.101483804e-06 1.311080632e-05 3.575816976e-08 3.906483107e-05 )
( 3.331251355e-05 -3.875308266e-06 -1.086145744e-06 1.307226103e-05 5.001952985e-08 3.898581781e-05 )
( 3.317393566e-05 -3.018091547e-06 -7.918521305e-07 1.026198152e-05 1.321645584e-07 3.888281572e-05 )
( 3.314999776e-05 -2.946709174e-06 -7.668317039e-07 9.93636877e-06 1.547819437e-07 3.877502968e-05 )
( 3.308306623e-05 -2.961901146e-06 -7.560831818e-07 9.816749298e-06 1.77572872e-07 3.84726518e-05 )
( 3.311227556e-05 -2.931953077e-06 -7.525204069e-07 9.784139365e-06 1.726613732e-07 3.864210157e-05 )
( 3.294880662e-05 -3.067018042e-06 -7.990238373e-07 9.896289157e-06 1.51428182e-07 3.794996155e-05 )
( 3.298303636e-05 -3.054805347e-06 -7.898737522e-07 9.960011084e-06 1.594114849e-07 3.807358371e-05 )
( 3.305454447e-05 -3.021312295e-06 -7.787887171e-07 1.007403444e-05 1.758514117e-07 3.834187009e-05 )
( 3.302781988e-05 -3.03632055e-06 -7.851218697e-07 1.001567762e-05 1.694098728e-07 3.821435894e-05 )
( 3.584240767e-05 -1.121777041e-05 -1.064471803e-06 2.388664689e-05 2.296635415e-07 3.100315007e-05 )
( 3.468369323e-05 -9.701520867e-06 -1.245667704e-06 2.216331086e-05 7.133446189e-08 3.179366831e-05 )
( 3.458875653e-05 -9.702834177e-06 -1.181076072e-06 2.204110024e-05 8.821754705e-08 3.150111297e-05 )
( 3.272311733e-05 -7.211078355e-06 -1.50174651e-06 1.861866804e-05 6.122575513e-08 3.311995533e-05 )
( 3.257351273e-05 -7.135046417e-06 -1.393983666e-06 1.834690556e-05 5.813330262e-08 3.2848915e-05 )
( 3.234955147e-05 -5.925777259e-06 -1.66116024e-06 1.643524047e-05 3.436959162e-08 3.429540448e-05 )
( 3.227313937e-05 -5.931515716e-06 -1.646054898e-06 1.63478835e-05 5.311723328e-08 3.42021558e-05 )
( 3.208407361e-05 -5.910124855e-06 -1.577630201e-06 1.619288196e-05 6.600753721e-08 3.400993228e-05 )
( 3.216747791e-05 -5.91412936e-06 -1.608943421e-06 1.631241503e-05 6.129670993e-08 3.408913835e-05 )
( 3.246574852e-05 -4.73209775e-06 -1.313362191e-06 1.381610764e-05 -5.676704262e-08 3.566210944e-05 )
( 3.243156243e-05 -4.728772183e-06 -1.359423209e-06 1.373924079e-05 -5.051155583e-08 3.554768045e-05 )
( 3.232109157e-05 -4.693252777e-06 -1.46190348e-06 1.357152632e-05 -1.408306716e-08 3.532563278e-05 )
( 3.237115379e-05 -4.695032658e-06 -1.420973831e-06 1.364936179e-05 -3.002258353e-08 3.540901525e-05 )
( 3.259290679e-05 -3.907981409e-06 -1.023546474e-06 1.199752478e-05 2.191485393e-08 3.6798574e-05 )
( 3.257645585e-05 -3.912413376e-06 -1.034130491e-06 1.19620172e-05 4.511231388e-09 3.672650564e-05 )
( 3.255179399e-05 -3.947272489e-06 -1.071933639e-06 1.182012966e-05 -2.139819166e-08 3.654189641e-05 )
( 3.256669152e-05 -3.947191544e-06 -1.054581048e-06 1.18513799e-05 -1.388860671e-08 3.661918163e-05 )
( 3.246499546e-05 -3.935016139e-06 -1.162704052e-06 1.166379298e-05 -5.163871464e-08 3.620818825e-05 )
( 3.247971836e-05 -3.93928849e-06 -1.143619784e-06 1.169223106e-05 -4.998872782e-08 3.626842954e-05 )
( 3.250423833e-05 -3.906903657e-06 -1.097699851e-06 1.18190901e-05 -4.061534042e-08 3.642691081e-05 )
( 3.248843859e-05 -3.907335667e-06 -1.116725343e-06 1.179465744e-05 -4.561493228e-08 3.635957546e-05 )
( 3.287710933e-05 -3.04984178e-06 -8.091100199e-07 9.887449778e-06 1.406277619e-07 3.781267151e-05 )
( 3.284282502e-05 -3.068115348e-06 -8.246702237e-07 9.823432265e-06 1.329322146e-07 3.769597242e-05 )
( 3.276336065e-05 -3.10061364e-06 -8.625195278e-07 9.700986084e-06 1.15508314e-07 3.746486254e-05 )
( 3.279397788e-05 -3.090774044e-06 -8.429377658e-07 9.767143638e-06 1.237437175e-07 3.757256854e-05 )
( 3.262246173e-05 -3.111278147e-06 -9.398680731e-07 9.499746739e-06 5.524388058e-08 3.705010749e-05 )
( 3.263875624e-05 -3.10152268e-06 -9.219489243e-07 9.565264008e-06 7.294194404e-08 3.714207924e-05 )
( 3.270476373e-05 -3.077423116e-06 -8.823678854e-07 9.689762919e-06 1.032298655e-07 3.734615166e-05 )
( 3.267728243e-05 -3.088988251e-06 -9.027768328e-07 9.619925549e-06 8.722624756e-08 3.724437192e-05 )
( 3.868946806e-05 -1.372441875e-05 -1.062321417e-06 2.649429007e-05 5.632696229e-07 3.125676085e-05 )
( 3.358735194e-05 -3.89779234e-06 -1.188462534e-06 1.318656177e-05 6.53222898e-08 3.959058813e-05 )
( 3.362252755e-05 -3.877808012e-06 -1.19415995e-06 1.316871112e-05 7.759744136e-08 3.967256998e-05 )
( 3.342656055e-05 -3.041263426e-06 -9.376087746e-07 1.055586017e-05 4.65113601e-08 3.974884385e-05 )
( 3.339636169e-05 -3.054968829e-06 -9.224241353e-07 1.053051074e-05 4.079732108e-08 3.966453369e-05 )
( 3.417428525e-05 -4.646388334e-06 -1.382159667e-06 1.5650965e-05 2.253433422e-07 3.995764564e-05 )
( 3.474874393e-05 -5.952921583e-06 -1.613571044e-06 1.929442624e-05 2.726675348e-07 3.98223674e-05 )
( 3.392202052e-05 -4.662767878e-06 -1.394110086e-06 1.549298577e-05 1.886376424e-07 3.961787661e-05 )
( 3.562706115e-05 -7.187837582e-06 -1.738844844e-06 2.228827725e-05 2.493052307e-07 3.983855277e-05 )
( 3.486455171e-05 -5.936427897e-06 -1.585915129e-06 1.937003981e-05 2.51289606e-07 3.992528582e-05 )
( 3.371119965e-05 -3.798312719e-06 -1.201706255e-06 1.318326213e-05 1.280688764e-07 3.987288073e-05 )
( 3.366663441e-05 -3.821244263e-06 -1.199614076e-06 1.320696811e-05 1.084731451e-07 3.979128815e-05 )
( 3.333217683e-05 -3.073557764e-06 -8.822504469e-07 1.047553997e-05 4.168732914e-08 3.947517325e-05 )
( 3.33539756e-05 -3.071367928e-06 -9.012194937e-07 1.051570507e-05 4.129955755e-08 3.957259469e-05 )
( 3.322035627e-05 -3.049634415e-06 -8.087886272e-07 1.027962026e-05 1.03380529e-07 3.901610762e-05 )
( 3.323055716e-05 -3.049857696e-06 -8.207289284e-07 1.035256719e-05 8.387217321e-08 3.913261753e-05 )
( 3.327886589e-05 -3.039789135e-06 -8.605290986e-07 1.047713431e-05 4.763851535e-08 3.935613859e-05 )
( 3.326218211e-05 -3.043573543e-06 -8.433071912e-07 1.041460473e-05 6.19136884e-08 3.924999692e-05 )
( 3.306998042e-05 -2.329728659e-06 -6.487359769e-07 7.918416486e-06 1.315491147e-07 3.876463234e-05 )
( 3.304239726e-05 -2.334718829e-06 -6.543174322e-07 7.891905625e-06 1.455488956e-07 3.86530628e-05 )
( 3.29912109e-05 -2.34425147e-06 -6.729771371e-07 7.811283467e-06 1.655714073e-07 3.838368866e-05 )
( 3.300791286e-05 -2.267815489e-06 -6.429048085e-07 7.580019883e-06 1.630166651e-07 3.850543362e-05 )
( 3.284350169e-05 -2.370506991e-06 -7.345007589e-07 7.645400729e-06 1.366780111e-07 3.784980072e-05 )
( 3.287654908e-05 -2.365081173e-06 -7.210601893e-07 7.674292647e-06 1.473196676e-07 3.796027886e-05 )
( 3.294891212e-05 -2.338724244e-06 -6.866374633e-07 7.771611308e-06 1.667471849e-07 3.822549479e-05 )
( 3.291442044e-05 -2.347559303e-06 -7.025053606e-07 7.745595212e-06 1.615666321e-07 3.811804709e-05 )
( 3.533930794e-05 -1.095719108e-05 -1.05426227e-06 2.345552457e-05 3.814794809e-07 3.077214933e-05 )
( 3.431927325e-05 -9.55662199e-06 -1.123463676e-06 2.17254692e-05 1.196654296e-07 3.119861867e-05 )
( 3.412344449e-05 -9.468465578e-06 -1.096565256e-06 2.151900662e-05 1.636950628e-07 3.102239134e-05 )
( 3.247849236e-05 -7.08272637e-06 -1.319063813e-06 1.809977766e-05 6.477764458e-08 3.260214726e-05 )
( 3.240074511e-05 -7.053617082e-06 -1.261828857e-06 1.789751695e-05 5.941631542e-08 3.230556831e-05 )
( 3.197622209e-05 -5.857611541e-06 -1.511802111e-06 1.610757135e-05 6.933280616e-08 3.387168545e-05 )
( 3.190326242e-05 -5.836810487e-06 -1.463202125e-06 1.597448681e-05 6.998756419e-08 3.375964297e-05 )
( 3.178683619e-05 -5.745498129e-06 -1.371142162e-06 1.57089471e-05 5.31463904e-08 3.349527105e-05 )
( 3.182212095e-05 -5.77413266e-06 -1.410722916e-06 1.585708014e-05 6.03408381e-08 3.36139783e-05 )
( 3.222471059e-05 -4.64294817e-06 -1.498293614e-06 1.344422526e-05 6.743148706e-09 3.523458508e-05 )
( 3.215922334e-05 -4.654901659e-06 -1.499557357e-06 1.339768369e-05 2.444749825e-08 3.517154255e-05 )
( 3.198309059e-05 -4.613482815e-06 -1.497994731e-06 1.320725005e-05 4.532077114e-08 3.506239227e-05 )
( 3.205090252e-05 -4.621563676e-06 -1.497755761e-06 1.329058796e-05 3.753602584e-08 3.511454997e-05 )
( 3.242264211e-05 -3.886333616e-06 -1.191458637e-06 1.166035145e-05 -5.583469687e-08 3.611525244e-05 )
( 3.240420483e-05 -3.880989425e-06 -1.211396238e-06 1.163114302e-05 -5.386229773e-08 3.606524842e-05 )
( 3.23717577e-05 -3.903923698e-06 -1.26289649e-06 1.149853506e-05 -4.46459083e-08 3.596051101e-05 )
( 3.239161015e-05 -3.90832156e-06 -1.24285225e-06 1.152773348e-05 -4.667868225e-08 3.600096898e-05 )
( 3.22637643e-05 -3.880752956e-06 -1.352004574e-06 1.134444665e-05 -2.784191011e-08 3.577807001e-05 )
( 3.228692003e-05 -3.883723366e-06 -1.338257448e-06 1.137266554e-05 -3.174833552e-08 3.580752673e-05 )
( 3.232364179e-05 -3.856696367e-06 -1.294735171e-06 1.149729087e-05 -4.362176043e-08 3.589210974e-05 )
( 3.230434595e-05 -3.852916507e-06 -1.313225994e-06 1.146976138e-05 -3.903024748e-08 3.58538382e-05 )
( 3.257909339e-05 -3.089409802e-06 -9.599393707e-07 9.487710486e-06 3.19344764e-08 3.694420957e-05 )
( 3.256722994e-05 -3.102450592e-06 -9.752177448e-07 9.430090358e-06 1.060534238e-08 3.685973206e-05 )
( 3.253319301e-05 -3.12219322e-06 -1.014347959e-06 9.338071322e-06 -1.167568975e-08 3.668239879e-05 )
( 3.254402691e-05 -3.119625489e-06 -9.965655181e-07 9.389061233e-06 -4.291225597e-09 3.676465349e-05 )
( 3.244503023e-05 -3.119032726e-06 -1.087391752e-06 9.19586364e-06 -2.840048019e-08 3.641474905e-05 )
( 3.245350308e-05 -3.115755135e-06 -1.073225462e-06 9.252333257e-06 -2.835922075e-08 3.646630284e-05 )
( 3.249320071e-05 -3.096832188e-06 -1.036358526e-06 9.345278158e-06 -2.355747419e-08 3.659705908e-05 )
( 3.247849963e-05 -3.104524922e-06 -1.051754225e-06 9.293659787e-06 -2.71150018e-08 3.653656677e-05 )
( 3.278736767e-05 -2.370935817e-06 -7.543497986e-07 7.595807801e-06 1.246005326e-07 3.769294926e-05 )
( 3.274516348e-05 -2.383151468e-06 -7.72291969e-07 7.565894975e-06 1.165185779e-07 3.758613821e-05 )
( 3.267312422e-05 -2.404126462e-06 -8.22306049e-07 7.464828286e-06 1.008094443e-07 3.734442362e-05 )
( 3.27051057e-05 -2.402414793e-06 -8.01129886e-07 7.49208084e-06 1.067942321e-07 3.744210335e-05 )
( 3.254460171e-05 -2.411182322e-06 -9.19943318e-07 7.289361292e-06 4.940382325e-08 3.690874291e-05 )
( 3.25675901e-05 -2.413890797e-06 -9.006832897e-07 7.314878985e-06 6.102296624e-08 3.699251829e-05 )
( 3.263181497e-05 -2.401377742e-06 -8.513802072e-07 7.413874755e-06 8.571282706e-08 3.721012035e-05 )
( 3.259845471e-05 -2.404398174e-06 -8.742004525e-07 7.386103334e-06 7.897050125e-08 3.711634417e-05 )
( 3.349043982e-05 -3.050876558e-06 -9.534639958e-07 1.050871742e-05 5.86433373e-08 3.984838622e-05 )
( 3.35145196e-05 -3.028746505e-06 -9.611609357e-07 1.051941308e-05 6.942117636e-08 3.992776328e-05 )
( 3.326113074e-05 -2.361407724e-06 -7.30527006e-07 8.162040103e-06 4.333517367e-08 3.965326687e-05 )
( 3.322984776e-05 -2.369345566e-06 -7.182954391e-07 8.164674e-06 3.820318994e-08 3.958460729e-05 )
( 3.400196147e-05 -3.707347332e-06 -1.166668198e-06 1.308689752e-05 1.953538771e-07 4.028244439e-05 )
( 3.432674566e-05 -4.467517101e-06 -1.324497362e-06 1.532185706e-05 2.274359758e-07 4.021227141e-05 )
( 3.393574661e-05 -3.734236543e-06 -1.175431521e-06 1.310255357e-05 1.866326897e-07 4.020359847e-05 )
( 3.380893031e-05 -3.809984264e-06 -1.197209372e-06 1.311004598e-05 1.582548066e-07 4.00091958e-05 )
( 3.38600039e-05 -3.789593848e-06 -1.188007218e-06 1.308643277e-05 1.693953351e-07 4.008808901e-05 )
( 3.52150746e-05 -6.072165888e-06 -1.530938221e-06 1.975379564e-05 1.862357948e-07 4.005444498e-05 )
( 3.508722875e-05 -6.065823527e-06 -1.574190492e-06 1.972420432e-05 2.172746463e-07 3.999485489e-05 )
( 3.450229633e-05 -4.510393865e-06 -1.290685304e-06 1.548667569e-05 2.011281595e-07 4.034601807e-05 )
( 3.360488336e-05 -2.972468792e-06 -9.766638414e-07 1.05116842e-05 1.148216882e-07 4.010674093e-05 )
( 3.356421803e-05 -2.99838689e-06 -9.700631836e-07 1.049952607e-05 9.0843713e-08 4.002400965e-05 )
( 3.318629388e-05 -2.374928954e-06 -6.883442438e-07 8.130382412e-06 4.477227122e-08 3.939211092e-05 )
( 3.32061245e-05 -2.381198328e-06 -7.01185968e-07 8.134537893e-06 4.299203127e-08 3.947598088e-05 )
( 3.309608655e-05 -2.346364681e-06 -6.502787642e-07 7.972666936e-06 1.052281959e-07 3.892444511e-05 )
( 3.311248292e-05 -2.352880074e-06 -6.481140531e-07 8.002077266e-06 8.968079612e-08 3.902944809e-05 )
( 3.31521187e-05 -2.357845915e-06 -6.694680792e-07 8.101164894e-06 5.356301358e-08 3.926070713e-05 )
( 3.313093112e-05 -2.355027846e-06 -6.629439895e-07 8.07480501e-06 6.712316036e-08 3.916633796e-05 )
( 3.260144513e-05 -1.788665031e-06 -5.728913948e-07 5.958697784e-06 1.09020533e-07 3.80140591e-05 )
( 3.25778492e-05 -1.796987817e-06 -5.907716627e-07 5.905531907e-06 1.234790687e-07 3.78756049e-05 )
( 3.251581438e-05 -1.802030283e-06 -6.329879056e-07 5.84424015e-06 1.401795089e-07 3.761190965e-05 )
( 3.253859904e-05 -1.795352318e-06 -6.087718134e-07 5.888431588e-06 1.347684986e-07 3.773887147e-05 )
( 3.236512566e-05 -1.830959036e-06 -7.343148241e-07 5.699637768e-06 1.128721294e-07 3.710101009e-05 )
( 3.239015859e-05 -1.819493036e-06 -7.114029472e-07 5.757356121e-06 1.270543493e-07 3.723164627e-05 )
( 3.246730193e-05 -1.795506364e-06 -6.590893804e-07 5.837414847e-06 1.434003281e-07 3.748622112e-05 )
( 3.243519313e-05 -1.812909886e-06 -6.874937526e-07 5.783263532e-06 1.381331174e-07 3.736156214e-05 )
( 3.387262768e-05 -9.345973012e-06 -1.083184088e-06 2.127116568e-05 2.461204929e-07 3.089286838e-05 )
( 3.373722575e-05 -9.259189028e-06 -1.076243166e-06 2.110882815e-05 2.980206659e-07 3.084311174e-05 )
( 3.229429421e-05 -6.974270491e-06 -1.206478942e-06 1.764359695e-05 6.543771747e-08 3.20557192e-05 )
( 3.22044325e-05 -6.897520052e-06 -1.172701559e-06 1.739522122e-05 9.292966041e-08 3.189195922e-05 )
( 3.171995922e-05 -5.674387012e-06 -1.335388674e-06 1.557872565e-05 5.040948636e-08 3.33606331e-05 )
( 3.168909825e-05 -5.662167951e-06 -1.307163302e-06 1.544162114e-05 4.162188816e-08 3.323053897e-05 )
( 3.164548252e-05 -5.627390692e-06 -1.252524839e-06 1.524222171e-05 3.742252375e-08 3.294191993e-05 )
( 3.164952068e-05 -5.63263211e-06 -1.282537369e-06 1.537162279e-05 4.066593817e-08 3.306334838e-05 )
( 3.18834027e-05 -4.554943189e-06 -1.452767378e-06 1.308131505e-05 5.42109504e-08 3.495700003e-05 )
( 3.182607543e-05 -4.527427791e-06 -1.428059818e-06 1.298434108e-05 5.499336453e-08 3.486171772e-05 )
( 3.169434422e-05 -4.415496733e-06 -1.37124016e-06 1.272450118e-05 3.883038602e-08 3.459178697e-05 )
( 3.174439917e-05 -4.455390354e-06 -1.394709784e-06 1.284253358e-05 4.791896657e-08 3.471902164e-05 )
( 3.219965583e-05 -3.829678917e-06 -1.374333465e-06 1.1336424e-05 -2.052223103e-08 3.572498099e-05 )
( 3.217220365e-05 -3.825463864e-06 -1.386209874e-06 1.130232522e-05 -1.595722487e-08 3.570158515e-05 )
( 3.212065349e-05 -3.846705113e-06 -1.40185557e-06 1.1167499e-05 6.344926806e-10 3.566131636e-05 )
( 3.214480967e-05 -3.854233455e-06 -1.396784455e-06 1.120084016e-05 -3.98883504e-09 3.567889144e-05 )
( 3.198980266e-05 -3.795141083e-06 -1.42204135e-06 1.097561562e-05 2.544165234e-08 3.556962474e-05 )
( 3.20119907e-05 -3.807678013e-06 -1.424882271e-06 1.101312773e-05 2.076929206e-08 3.559707329e-05 )
( 3.206098336e-05 -3.792113603e-06 -1.414022563e-06 1.115210034e-05 6.797770347e-09 3.563406062e-05 )
( 3.203578672e-05 -3.782044587e-06 -1.417870521e-06 1.111679285e-05 1.008871386e-08 3.56147284e-05 )
( 3.24031389e-05 -3.084358923e-06 -1.109994628e-06 9.192808648e-06 -2.824421763e-08 3.63514846e-05 )
( 3.238989666e-05 -3.086932566e-06 -1.127402925e-06 9.136432709e-06 -2.577886171e-08 3.630675928e-05 )
( 3.235003533e-05 -3.093384294e-06 -1.171429176e-06 9.040026271e-06 -2.408406985e-08 3.622173608e-05 )
( 3.236168413e-05 -3.092990028e-06 -1.152520213e-06 9.093603694e-06 -2.397488785e-08 3.62594983e-05 )
( 3.225182809e-05 -3.069842478e-06 -1.243024485e-06 8.905369214e-06 -3.014802985e-08 3.606412793e-05 )
( 3.226372064e-05 -3.070002322e-06 -1.230542807e-06 8.955854355e-06 -2.998144311e-08 3.609795749e-05 )
( 3.230444781e-05 -3.057457889e-06 -1.196526114e-06 9.04035096e-06 -2.629421303e-08 3.617426773e-05 )
( 3.229093272e-05 -3.061739562e-06 -1.212480242e-06 8.991040886e-06 -2.934030086e-08 3.613780791e-05 )
( 3.251545786e-05 -2.406913609e-06 -9.443546105e-07 7.245244888e-06 2.757672846e-08 3.679483416e-05 )
( 3.249055226e-05 -2.414155233e-06 -9.625518942e-07 7.223909961e-06 1.116879211e-08 3.672111052e-05 )
( 3.245383778e-05 -2.428744438e-06 -1.003084662e-06 7.159212146e-06 -9.194532247e-09 3.655257024e-05 )
( 3.246824417e-05 -2.42740407e-06 -9.85668521e-07 7.172594451e-06 -5.294428895e-09 3.662074596e-05 )
( 3.236896373e-05 -2.433870577e-06 -1.060334625e-06 7.031898804e-06 -8.239823934e-09 3.63382569e-05 )
( 3.238437785e-05 -2.437153626e-06 -1.047437877e-06 7.053024092e-06 -1.325575205e-08 3.637073678e-05 )
( 3.242535968e-05 -2.420870942e-06 -1.019473302e-06 7.128991911e-06 -1.797965865e-08 3.647437552e-05 )
( 3.240189108e-05 -2.426455694e-06 -1.030614044e-06 7.111285868e-06 -1.663248739e-08 3.642981028e-05 )
( 3.231336814e-05 -1.826420316e-06 -7.566603699e-07 5.682049959e-06 1.022191611e-07 3.696827116e-05 )