/*--------------------------------*- C++ -*----------------------------------*\
  =========                 |
  \\      /  F ield         | OpenFOAM: The Open Source CFD Toolbox
   \\    /   O peration     | Website:  https://openfoam.org
    \\  /    A nd           | Version:  8
     \\/     M anipulation  |
\*---------------------------------------------------------------------------*/






FoamFile
{
    version     2.0;
    format      ascii;
    class       volScalarField;
    location    "0";
    object      pDDES;
}
// * * * * * * * * * * * * * * * * * * * * * * * * * * * * * * * * * * * * * //

dimensions      [0 2 -2 0 0 0 0];


internalField   nonuniform List<scalar> 
23940
(
0.001211993163
0.001214000862
0.001215525088
0.001215926837
0.001217840705
0.001218975638
0.001217717887
0.001220123842
0.001221613842
0.001222609309
0.001222329913
0.001219312893
0.0012242503
0.001225538086
0.001224396168
0.001225662418
0.00122678536
0.001224372536
0.001220628386
0.001228548819
0.001227439032
0.001228814595
0.001226709457
0.001228322857
0.001231819275
0.001229978865
0.001226136112
0.001221576473
0.001230676309
0.001232112758
0.001229980146
0.00123171485
0.001227981178
0.001228655223
0.001230350928
0.001229636255
0.001234050491
0.001234004856
0.001235470874
0.001232727896
0.001233759569
0.001232329058
0.001227523433
0.001222040039
0.001233435469
0.00123521639
0.001231361995
0.001232086099
0.001233845367
0.001233113813
0.001229453948
0.001230439288
0.001232161419
0.001231279108
0.001237177057
0.001235390082
0.001236969838
0.001238838071
0.001235538744
0.001236072392
0.001233968767
0.001228414127
0.001221919898
0.00123487704
0.001235627336
0.001237448188
0.001236679731
0.001233013114
0.001233900199
0.00123567658
0.001234765514
0.001230219379
0.001230693422
0.001231702976
0.001231289119
0.001233417075
0.001232997398
0.001232134993
0.001232554088
0.00124114682
0.001239303732
0.001237026067
0.001238520024
0.00123932492
0.001241281396
0.001240443089
0.001238564611
0.00123754004
0.001238665543
0.001235520467
0.001228787703
0.001221095095
0.001236570533
0.001237507327
0.001239405246
0.001238433644
0.001233852003
0.001234278432
0.001235152828
0.001234724303
0.001236963319
0.001236508018
0.001235605101
0.001236043172
0.001231698785
0.001232537557
0.001232189825
0.001234228141
0.00123387354
0.001233025338
0.001233378658
0.001242429484
0.0012432558
0.001243446139
0.001241758117
0.001241245656
0.001242625876
0.001240354963
0.001241332386
0.001243322855
0.001242295839
0.001240565674
0.001242796541
0.001242676284
0.001239859499
0.001240699319
0.001236609183
0.001229301561
0.001219372265
0.001237424905
0.001237883465
0.001238841331
0.001238363213
0.001240787096
0.001240303158
0.001239324687
0.001239807112
0.001234730007
0.001235092757
0.001235967735
0.001235599862
0.001237789053
0.001237401622
0.001236487413
0.001236866927
0.00123204384
0.001232876093
0.001232452691
0.001234561787
0.001234128373
0.001233286923
0.001233713701
0.001244313898
0.00124466978
0.001245446154
0.001244761399
0.001243567793
0.001244517509
0.0012412871
0.001241751248
0.001242710045
0.001242244965
0.001244504121
0.001244144514
0.001243197359
0.001243652543
0.001244765939
0.001246006344
0.001245497609
0.001244574552
0.001247209031
0.001245807507
0.001241641934
0.001242413302
0.001234603231
0.001238595112
0.001228080364
0.001234652591
0.001217649551
0.001238330035
0.00123872282
0.001239703153
0.001239288365
0.001241688966
0.001241271384
0.001240282436
0.001240697224
0.00123498484
0.001235428732
0.001236308366
0.001235861215
0.001238140394
0.001237667864
0.001236756798
0.001237214776
0.001232550712
0.001233374234
0.001232945826
0.001235054922
0.001234613359
0.001233773539
0.00123420672
0.001245057094
0.001245680382
0.001245796913
0.001246394706
0.001246739179
0.001246371656
0.00124587561
0.001246764557
0.001242251252
0.001242660452
0.001243641018
0.001243210165
0.001245574676
0.001245164778
0.0012441976
0.001244629268
0.001246737433
0.001247668173
0.001248376677
0.001247721142
0.001247402048
0.001248137676
0.001249553519
0.001249788795
0.001248954795
0.001246689004
0.001248982502
0.001248796121
0.001244168379
0.001247911016
0.001239714213
0.001224072534
0.001228617271
0.001234501135
0.001234376454
0.001222994528
0.00123859907
0.00123908394
0.001240071724
0.001239566132
0.001242047641
0.00124154985
0.00124055671
0.001241063816
0.001235470059
0.001235921867
0.00123681
0.001236347714
0.001238645404
0.001238161232
0.001237245277
0.001237717224
0.001233065268
0.001233881456
0.001233470859
0.001235557487
0.001235130243
0.001234292984
0.001234710915
0.001246009022
0.001246851054
0.001246917294
0.001247234526
0.001246608212
0.001247202628
0.00124776538
0.00124775595
0.001247685868
0.001247263164
0.001248016022
0.001242524362
0.001243017148
0.00124400435
0.001243500505
0.001245969324
0.001245465712
0.001244492247
0.001244996442
0.001249032444
0.001250467147
0.001250026282
0.001248946181
0.001250907662
0.001251214766
0.001252587535
0.001251525478
0.00124941417
0.001250141417
0.001251898007
0.001251619775
0.001244931249
0.001247091917
0.001247539069
0.001249192283
0.001251507318
0.001250986941
0.001240489422
0.001234835363
0.001228516223
0.001240313286
0.001221421757
0.001239106874
0.001239608973
0.001240594545
0.001240083831
0.001242555911
0.001242052531
0.001241071499
0.001241582446
0.001235986478
0.001236425014
0.001237313962
0.00123686553
0.001239162404
0.0012386858
0.001237764023
0.001238222001
0.001233457588
0.001234269002
0.001233861316
0.001235941425
0.001235516742
0.001234681229
0.001235096483
0.001246603206
0.001247503562
0.00124788587
0.001248448505
0.001248647808
0.00124816352
0.001248798566
0.001248673769
0.001248372602
0.001248002518
0.001249590423
0.001249092398
0.001243026578
0.001243536943
0.001244531246
0.001244020648
0.001246361411
0.001245883177
0.001244985964
0.001245468622
0.001251336304
0.001252361224
0.00125179498
0.001251461217
0.001251083217
0.00125000265
0.001250459696
0.001252453774
0.001253729686
0.001254325151
0.001254002913
0.001252900227
0.001253474271
0.001252243179
0.001253544702
0.001254082192
0.001253296621
0.001243836246
0.001246092026
0.001248627668
0.001247967943
0.001250161207
0.001252542133
0.001255128882
0.001254241564
0.001243885257
0.001234182972
0.001238457859
0.001238251338
0.001227908768
0.001244271523
0.001243873849
0.001240964746
0.00123964611
0.001240137732
0.00124112051
0.001240626792
0.001243072446
0.001242583618
0.0012416112
0.001242099563
0.001236372045
0.001236808253
0.001237698249
0.001237251679
0.001239560661
0.0012390794
0.001238149707
0.001238608616
0.001233720104
0.00123452954
0.001234122552
0.001236199983
0.001235775533
0.001234940602
0.001235356438
0.001246880274
0.001248195418
0.001249367022
0.001249830239
0.001249741996
0.001248898567
0.001249567838
0.001249442575
0.001248961198
0.001248498447
0.001251013135
0.00125070475
0.00124356756
0.001244074199
0.001245075604
0.001244583982
0.001246799598
0.001246394706
0.001245536725
0.001245979685
0.00125225191
0.001252763323
0.001252974966
0.001253811875
0.001253143069
0.001252493821
0.00125149719
0.001251908019
0.001254327595
0.001253914903
0.001254659146
0.001255172421
0.001255156356
0.00125575834
0.00125548779
0.001254511299
0.001254883828
0.001255182084
0.001255833544
0.001255348558
0.001255879062
0.001255678013
0.001254706644
0.001255184063
0.001249139663
0.001246660249
0.001252259011
0.00125102012
0.001253460301
0.001254883362
0.001255233772
0.001256832271
0.001256499323
0.001256462536
0.001256140298
0.001256203977
0.001231805887
0.001234331983
0.001238262979
0.001238038996
0.001241211314
0.001231154893
0.001244362909
0.001248191227
0.001247226377
0.001240049023
0.0012405382
0.00124151702
0.001241027378
0.001243471401
0.001242975704
0.001242005499
0.00124248967
0.001236630022
0.001237066695
0.001237955876
0.001237509074
0.0012398283
0.00123934471
0.001238408033
0.001238869736
0.001233879593
0.001234688214
0.001234282157
0.001236357843
0.001235933509
0.001235099742
0.001235514646
0.001247662585
0.001247243257
0.00124854024
0.001250227215
0.001250921167
0.001250225585
0.001249529538
0.00124998868
0.001250063535
0.001249458874
0.001248933026
0.001252102549
0.001251687529
0.001243977225
0.001244488172
0.001245497493
0.00124500785
0.001247215667
0.001246815082
0.001245955005
0.001246396685
0.00125363702
0.001253990224
0.001254085801
0.001254764735
0.001253972878
0.001253322931
0.001252374612
0.001252849586
0.001256115269
0.001256027259
0.001256282791
0.001256715041
0.001256389776
0.001255942741
0.001255176729
0.001255704556
0.001256243908
0.001256720047
0.001256702584
0.001257586991
0.001257541007
0.001257588738
0.001256582094
0.00125698722
0.001252828632
0.001250277157
0.001254284056
0.001254335977
0.001254455303
0.00125553878
0.001255541341
0.001257287804
0.001257594675
0.001258479082
0.001258179313
0.001257926924
0.001257941243
0.001237973222
0.001234133961
0.001242242288
0.001241582679
0.001245182473
0.001248427317
0.001250331989
0.001250532689
0.001250962028
0.001240317244
0.001240805723
0.001241780003
0.001241292572
0.001243743463
0.001243240316
0.001242265687
0.001242748694
0.001236788929
0.001237224787
0.001238113735
0.001237666816
0.001239991747
0.001239508274
0.00123856659
0.001239031437
0.001233968069
0.00123477669
0.001234370284
0.00123644562
0.001236020937
0.001235187287
0.001235602307
0.001248146407
0.001247634413
0.001248818007
0.001250890899
0.001251474954
0.001250633155
0.001250028959
0.001250544214
0.00125055213
0.0012498094
0.001249272958
0.00125277997
0.00125235552
0.001244256156
0.001244769897
0.001245788182
0.001245298423
0.001247522305
0.001247118227
0.001246245811
0.001246690401
0.001254581031
0.001254547155
0.001254767179
0.001255098847
0.001254536328
0.001254013623
0.001253129332
0.001253582304
0.001256942167
0.001256925752
0.001257103751
0.001257769647
0.001257072669
0.001256736461
0.001255757175
0.001256376039
0.001257883618
0.001257688156
0.001258301549
0.001258345437
0.001258579898
0.001258301549
0.001257432043
0.001258057193
0.0012544333
0.001254813164
0.001253812108
0.001252382062
0.001252403483
0.001256129239
0.001255746931
0.001255814801
0.00125622435
0.001257468481
0.001257517375
0.00125812029
0.00125882111
0.001259668497
0.001259391545
0.001258607022
0.001258903416
0.001238337019
0.001242194208
0.001244342537
0.001244763378
0.0012455252
0.001247344539
0.001247594249
0.001250335015
0.001250583911
0.001249179244
0.001252340619
0.00125205447
0.001252503367
0.001252870541
0.001240481273
0.001240968704
0.001241940074
0.001241454622
0.001243913197
0.001243404578
0.001242423081
0.001242907951
0.001236876706
0.001237312681
0.001238201046
0.00123775471
0.001240083133
0.001239599194
0.001238655183
0.001239121892
0.001234010328
0.001234819298
0.001234412775
0.001236487646
0.001236062846
0.001235229196
0.001235644333
0.001248410437
0.001247927896
0.00124901603
0.001251194044
0.001251728623
0.001250991598
0.001250375761
0.001251026173
0.001250897069
0.001250037923
0.001249501482
0.00125322747
0.001252845628
0.001244430314
0.001244948246
0.001245974912
0.001245484105
0.001247727312
0.001247316832
0.001246432657
0.001246882137
0.001255234936
0.001255151816
0.001255464624
0.001255663345
0.001254731673
0.001255109324
0.001254279749
0.001253686496
0.001254019444
0.001257680357
0.001257621218
0.001258153119
0.001258813078
0.001257767552
0.001257482334
0.001256247866
0.001257344498
0.001258981996
0.001258804696
0.001259387471
0.001259424724
0.001259195153
0.001259051147
0.001258089673
0.001258664764
0.001256141812
0.001255337498
0.001256646356
0.001254207455
0.001257253578
0.001257227384
0.00125764939
0.001258102478
0.001258495962
0.001258293167
0.001259259181
0.001259927754
0.001260540797
0.001260643126
0.001259621233
0.001259901794
0.001240492682
0.001241064048
0.001244193409
0.001244329964
0.001242728671
0.001246435568
0.001246378873
0.001247269684
0.001247520908
0.00124930765
0.001252252841
0.001250912552
0.001252575079
0.001253720024
0.001253607799
0.001254399656
0.001254856819
0.001240573474
0.001241060207
0.001242029713
0.001241545309
0.001244008658
0.001243496663
0.001242510625
0.001242997125
0.001236918266
0.001237354823
0.001238243305
0.001237796503
0.001240127487
0.001239643432
0.001238697791
0.00123916578
0.001234026393
0.001234835247
0.001234428724
0.001236503595
0.001236078679
0.001235245611
0.001235660398
0.001248580753
0.001248125453
0.001249141991
0.001251487294
0.001252308954
0.001251890324
0.001251462614
0.001250603469
0.001251371228
0.001251125475
0.00125017995
0.001249643858
0.001253491966
0.001253120718
0.0012445295
0.00124505139
0.001246086438
0.001245594583
0.001247850829
0.001247434993
0.001246545231
0.001246996922
0.001255807583
0.001255845651
0.001256064395
0.001256293152
0.001255086972
0.001255549607
0.001254654489
0.001253917115
0.001254355651
0.001258395845
0.001258535427
0.00125819142
0.001258908771
0.001259418437
0.001258416101
0.001258097356
0.001256735646
0.001257063122
0.00125789817
0.001260154764
0.001259782701
0.001260203659
0.001260661986
0.001260064193
0.001259846264
0.001259674202
0.001258836244
0.001259702491
0.001257505617
0.001255718875
0.00125687418
0.001257977681
0.001258539152
0.001258478034
0.001258970588
0.001259366516
0.001259555458
0.001259336481
0.001260528341
0.001260694116
0.001260613557
0.001261281897
0.00126142113
0.001260742196
0.001260554069
0.001260633115
0.001242571161
0.001240236452
0.001246201922
0.001244536717
0.001246379223
0.001247936394
0.001248059678
0.001249320223
0.001249608235
0.00125101814
0.001253868802
0.001252589282
0.001254071016
0.001255243784
0.001255031442
0.001255938667
0.001256279531
0.001240619109
0.001241105376
0.001242073486
0.00124158978
0.001244055689
0.001243541599
0.001242553699
0.001243040664
0.001236933982
0.001237370889
0.00123825937
0.001237812685
0.001240144949
0.001239660429
0.001238714089
0.001239182428
0.001234029885
0.001234838623
0.001234432217
0.001236506621
0.001236081938
0.001235248754
0.001235663658
0.001248689834
0.001248248387
0.001249216846
0.001251862152
0.001252741786
0.001252260758
0.001251812675
0.001250746194
0.00125160208
0.001251269248
0.001250259927
0.001249725348
0.001253814087
0.001253440161
0.001244579558
0.001245105872
0.001246147207
0.001245655236
0.001247917418
0.001247497625
0.001246606698
0.001247058623
0.001256226213
0.00125646661
0.001256533666
0.00125688035
0.001255518175
0.001255945885
0.001255100826
0.001254253788
0.001254692208
0.001259104582
0.001259223907
0.001258797711
0.001259548124
0.001259873156
0.001258896431
0.001258564298
0.00125726359
0.001257670112
0.001258301665
0.001260880497
0.001260424615
0.00126063975
0.001260915073
0.001261426252
0.001260825666
0.001260546269
0.001260367571
0.001259633573
0.001259412849
0.001260353369
0.001258653472
0.001257126103
0.001258176286
0.001259164768
0.001259530196
0.001259833691
0.001260246499
0.001260158489
0.001260120654
0.001260386896
0.001260313555
0.00126031274
0.001261292724
0.00126144418
0.001261330443
0.001261851401
0.00126196607
0.001261541736
0.001261338475
0.001261402038
0.001244318555
0.001242329017
0.001247929991
0.001246214844
0.001247951761
0.001249553636
0.00124957494
0.00125105388
0.001251146896
0.001252609421
0.00125529815
0.001254082308
0.001255358336
0.001256553573
0.001256425283
0.001257240539
0.001257497817
0.00124063727
0.001241123187
0.001242090948
0.001241607242
0.001244074432
0.001243559411
0.001242570812
0.001243058476
0.001236937125
0.001237374032
0.00123826263
0.001237816177
0.001240148675
0.001239663921
0.001238717348
0.001239185804
0.001234028372
0.001234836876
0.001234430471
0.001236504526
0.001236079843
0.001235246775
0.001235661912
0.001248754095
0.001248318236
0.001249259687
0.001252216403
0.001253069728
0.001252605114
0.001252046903
0.0012508285
0.001251744339
0.001251350273
0.001250300906
0.001249768888
0.001254095929
0.001253682887
0.001244600397
0.001245130901
0.001246176311
0.001245685155
0.001247949549
0.001247526612
0.001246635802
0.001247087494
0.001256518764
0.001256932737
0.001256859861
0.001257315977
0.001255808165
0.001256207353
0.0012553985
0.001254545525
0.00125498313
0.001259768964
0.001259657787
0.001259254757
0.001260051969
0.001260190737
0.001259217737
0.001258876524
0.001257665572
0.001258044038
0.001258571632
0.001261379337
0.001261130557
0.001261422178
0.001261461643
0.001261987258
0.00126130681
0.001261061872
0.001260888297
0.001260303776
0.001260027522
0.001260819961
0.001259411336
0.001259433455
0.001258324948
0.001258900622
0.001258737291
0.001259869081
0.001260361052
0.00126067386
0.001261072117
0.001260936842
0.001260932069
0.001261214959
0.001261106925
0.0012611032
0.001261828351
0.001261954894
0.00126187678
0.001262242091
0.00126233208
0.001262079342
0.001261942089
0.001261986792
0.001244181069
0.001246034168
0.001249438268
0.001247815671
0.001249276567
0.00125087006
0.001251095789
0.001252524322
0.001252418733
0.001253910246
0.001256163465
0.001255905489
0.001254904317
0.001254580566
0.001256138436
0.001257371507
0.001257021446
0.001257200609
0.001257868018
0.001258018892
0.001258231117
0.001240641577
0.001241127145
0.001242094673
0.001241611084
0.001244078856
0.001243563602
0.00124257477
0.00124306255
0.00123693503
0.001237372286
0.001238260651
0.001237814315
0.001240147045
0.001239662059
0.001238715253
0.001239183825
0.001234026626
0.001234834548
0.001234428724
0.00123650243
0.00123607798
0.001235244912
0.0012356597
0.001248791697
0.001248354907
0.001249282155
0.001252458198
0.001253279857
0.001252840273
0.001252191141
0.001250870293
0.001251823967
0.001251391252
0.001250319998
0.001249789726
0.001254266594
0.0012538312
0.001244605752
0.0012451394
0.001246188651
0.001245697378
0.001247962704
0.001247538603
0.001246648608
0.00124709995
0.001256709686
0.001257246942
0.001257064636
0.001257608063
0.001255994895
0.001256376738
0.001255583367
0.001254717237
0.001255158684
0.00126027572
0.001259943005
0.001259553945
0.00126040203
0.001260396559
0.0012594125
0.001259068609
0.001257930649
0.001258280827
0.001258737291
0.001261711353
0.001261674566
0.001261951285
0.001261834055
0.001262370963
0.001261605765
0.001261397148
0.001261236845
0.001260741963
0.001260498422
0.001261132769
0.001260182355
0.001260233461
0.001259044744
0.001259559533
0.001259396086
0.001260365592
0.001260994701
0.001261292957
0.001261646976
0.001261553494
0.001261541736
0.00126176991
0.001261690981
0.001261689467
0.001262176433
0.001262272941
0.001262236154
0.001262484933
0.00126255746
0.001262426493
0.001262360136
0.001262377831
0.001245772582
0.001247375854
0.001249963883
0.001250320231
0.001248684363
0.001248238957
0.001250073081
0.001251643873
0.001251568319
0.001251912443
0.001253048657
0.001253383933
0.001253155759
0.001254686387
0.001256960793
0.001256660791
0.00125563913
0.001255273004
0.001256710035
0.00125797349
0.001257756143
0.001257921569
0.001258568838
0.001258725533
0.001258758362
0.001240640529
0.001241125632
0.001242093043
0.001241609221
0.001244077226
0.001243561856
0.001242572907
0.001243060804
0.001236933167
0.001237370307
0.001238258323
0.001237811986
0.001240145415
0.00123965973
0.001238713507
0.001239181613
0.001248812536
0.001248372486
0.001249293913
0.001252606977
0.001253411407
0.001252987888
0.001252270304
0.001250891946
0.001251863549
0.001251412323
0.001250330242
0.001249799388
0.001254360075
0.001253916533
0.001244604355
0.001245140331
0.001246194937
0.001245702617
0.00124796771
0.001247544657
0.001246655826
0.001247106935
0.001256823307
0.001257440657
0.001257184078
0.001257786877
0.001256106887
0.001256478601
0.001255688025
0.001254810486
0.001255253912
0.001260619611
0.001260121702
0.001259741141
0.001260624384
0.001260516699
0.001259522862
0.001259175246
0.001258094097
0.001258424832
0.00125883054
0.001261910191
0.001262036618
0.001262295409
0.001262065838
0.00126261625
0.001261779689
0.001261596335
0.001261451282
0.001261020778
0.001260810881
0.001261320896
0.001260701334
0.0012608252
0.00125955441
0.001260063378
0.001259887707
0.001260697376
0.001261431491
0.001261718571
0.001262034872
0.001261986443
0.00126195862
0.00126212195
0.001262071542
0.001262079459
0.001262382371
0.001262454316
0.001262453152
0.001262624515
0.001262683189
0.001262634993
0.001262627775
0.001262623817
0.001246195519
0.00124667678
0.001248170971
0.001250691246
0.001251088339
0.001249450608
0.001248936169
0.001250664354
0.001252183574
0.001252236078
0.001252618036
0.001253740629
0.001254132832
0.001253678929
0.001255235169
0.001257574419
0.001257241238
0.001256203395
0.001255811425
0.001257101772
0.001258394681
0.001258319477
0.001258477219
0.001259079552
0.001259248704
0.001259109355
0.001240637386
0.001241123304
0.001242089784
0.001241606893
0.001244075596
0.001243559993
0.001242570579
0.001243058825
0.001248823828
0.001248382498
0.00124930148
0.001252689399
0.001253488241
0.00125307194
0.001252309419
0.001250904752
0.001251881942
0.001251425128
0.001250341884
0.001249805326
0.001254408155
0.001253963565
0.001244601677
0.001245144173
0.001246199128
0.001245699474
0.001247971319
0.001247548615
0.001246660948
0.001247112174
0.001256887801
0.001257549622
0.001257249271
0.001257886179
0.001256168587
0.001256538788
0.001255744137
0.001254855888
0.001255299198
0.001260835561
0.001260230201
0.001259847078
0.001260753954
0.001260585501
0.001259576296
0.00125922903
0.001258186763
0.001258506323
0.00125887827
0.001262019039
0.001262260368
0.001262508798
0.001262194826
0.001262760954
0.001261869445
0.001261705416
0.001261569792
0.001261192141
0.001261003781
0.001261428348
0.001261032652
0.001261218917
0.001259884681
0.001260400983
0.001260202727
0.00126090087
0.001261712052
0.001261987258
0.001262275851
0.001262270729
0.001262221485
0.001262326725
0.001262299251
0.00126231811
0.001262490754
0.001262545353
0.001262572012
0.001262699021
0.00126274745
0.001262747915
0.001262787613
0.001262765727
0.001246866887
0.001247438253
0.001248744898
0.00125125132
0.001251651207
0.00125004712
0.001249507419
0.001251081121
0.001252535963
0.001252749003
0.001253142487
0.001254263101
0.001254680566
0.00125402445
0.001255592797
0.001258002012
0.001257634955
0.001256588614
0.001256164396
0.001257347292
0.001258671284
0.001258696429
0.001258853241
0.00125940633
0.001259591896
0.001259319833
0.001248830929
0.001248388668
0.001252729795
0.001253531547
0.001253116061
0.001252326882
0.001250909409
0.001251893234
0.001251433045
0.001254430157
0.001253988943
0.00125692843
0.001257605036
0.001257283613
0.001257936703
0.001256207004
0.001256575342
0.001255770214
0.00125487498
0.001255319919
0.001260958496
0.001260292367
0.001259904588
0.001260822872
0.001260630786
0.001259601093
0.001259254059
0.001258234377
0.001258547069
0.001258902601
0.001262073638
0.001262384816
0.001262631384
0.001262259786
0.001262843842
0.001261912752
0.001261761179
0.001261631958
0.001261287602
0.001261116005
0.001261482714
0.001261228812
0.001261463622
0.001260078978
0.001260606805
0.001260382589
0.00126101356
0.001261878642
0.001262143371
0.00126241229
0.001262445585
0.001262373058
0.001262430451
0.001262420439
0.001262449194
0.001262543956
0.001262587262
0.001262633479
0.001262736856
0.001262782491
0.001262804028
0.001262877486
0.001262841746
0.001247391803
0.001247999142
0.001249132096
0.001251627691
0.001252026879
0.001250472153
0.001249895431
0.001251357375
0.001252746442
0.001253080089
0.0012534915
0.001254600473
0.00125504157
0.001254230854
0.001255807467
0.001258282806
0.001257877098
0.001256829128
0.00125637115
0.001257489203
0.00125884416
0.001258930424
0.00125908677
0.001259594224
0.001259796787
0.001259435201
0.001252747257
0.001253554015
0.001253137481
0.001252335147
0.001251900452
0.001254444942
0.001254005358
0.001256952877
0.001257634489
0.001257307362
0.001257962547
0.001256229938
0.00125660107
0.001255786396
0.001254885225
0.001255329349
0.001261023106
0.001260335324
0.001259934856
0.001260863733
0.001260665362
0.001259613317
0.001259268844
0.001258258591
0.001258568955
0.001258919714
0.001262098551
0.00126244931
0.001262697624
0.00126229017
0.001262893085
0.001261932775
0.001261788188
0.00126166339
0.00126133766
0.001261174446
0.001261509839
0.001261331025
0.001261601574
0.001260182471
0.001260720892
0.001260472694
0.001261072699
0.001261971309
0.001262228936
0.0012624847
0.00126254803
0.001262455015
0.001262475387
0.00126247853
0.001262515434
0.0012625698
0.001262606005
0.001262663049
0.001262758742
0.001262808801
0.001262832899
0.001262928592
0.001262883772
0.001247740351
0.001248378772
0.001249375287
0.001251856331
0.001252258429
0.001250753179
0.001250136178
0.001251530834
0.001252859947
0.001253269613
0.001253703609
0.001254795003
0.001255261013
0.001254342729
0.001255925512
0.001258453005
0.001258011907
0.00125696836
0.001256478135
0.00125756755
0.001258948701
0.001259060809
0.001259217737
0.001259687007
0.001259909477
0.001259489451
0.001252754941
0.001253567636
0.001253146795
0.001252341084
0.001254454954
0.001254016068
0.001256966614
0.001257652184
0.001257318538
0.001257979544
0.00125623832
0.00125661504
0.001255797921
0.001254893374
0.00125533808
0.001261057449
0.001260366524
0.001259952551
0.001260890742
0.001260681776
0.001259617275
0.001259279787
0.001258275006
0.001258584205
0.001258932753
0.001262112055
0.001262479695
0.001262740814
0.001262304606
0.00126293581
0.001261947444
0.001261802157
0.001261680969
0.00126136234
0.001261204015
0.001261528931
0.001261378406
0.001261673402
0.001260234509
0.001260779565
0.001260512159
0.00126110483
0.001262023463
0.001262277365
0.001262521953
0.001262608333
0.00126250193
0.0012624925
0.001262503909
0.001262547099
0.001262584701
0.001262618112
0.00126267958
0.001262773876
0.001262827776
0.001262854901
0.001262963167
0.00126291078
0.001247946871
0.001248621731
0.001249516616
0.001251980313
0.001252388
0.00125092594
0.001250268309
0.001251636655
0.001252916292
0.001253361697
0.001253819326
0.001254891162
0.001255382434
0.001254398143
0.001255987212
0.001258551027
0.001258080592
0.001257042517
0.001256526681
0.001257612952
0.00125901401
0.001259127399
0.001259284909
0.001259725774
0.001259963377
0.001259513781
0.00125275692
0.001253575319
0.001253154012
0.001257664757
0.001257988275
0.001261080382
0.00126037281
0.001259971177
0.001260906458
0.001258288394
0.001258598058
0.001262126258
0.001262499485
0.001262772596
0.001262307866
0.001262956299
0.001261956058
0.001261816942
0.001261689118
0.001261378406
0.001261223457
0.001261542784
0.001261404017
0.001261713216
0.001260259189
0.001260811696
0.00126053032
0.001261128462
0.00126205862
0.001262312988
0.001262545702
0.001262650941
0.001262537902
0.00126250321
0.00126251718
0.001262565376
0.001262597274
0.001262628939
0.001262693433
0.001262874808
0.001262984122
0.001262930571
0.00124805409
0.001248762943
0.001249594963
0.001252041198
0.001252454589
0.001251028385
0.001250334899
0.001251703361
0.001252942951
0.001253398834
0.001253877999
0.001254932024
0.001255445881
0.001254427014
0.00125601911
0.001258607022
0.001258116332
0.001257080818
0.001256549032
0.001257643336
0.00125906209
0.001259161159
0.001259314595
0.001259737066
0.001259989687
0.001259526121
0.001261089928
0.001262518461
0.001262786333
0.001261390396
0.00126123894
0.001261423924
0.001261740341
0.001260275254
0.001260830555
0.001260543126
0.001261139638
0.001262075035
0.001262339531
0.001262574689
0.00126266235
0.001262564794
0.001262513455
0.001262530452
0.001262571663
0.001248101704
0.001248839777
0.001249642344
0.001252070186
0.001252485556
0.001251089969
0.001250371803
0.001251755632
0.001252959133
0.001253412571
0.001253906405
0.001254948089
0.001255478244
0.001254447736
0.00125604379
0.001258648001
0.001258143573
0.001257108757
0.001256566378
0.001257660915
0.001259070355
0.001259183395
0.001259328565
0.001259744633
0.001260002493
0.001259535202
0.001261438243
0.001261758152
0.001260282937
0.001260843128
0.001260552555
0.001248124521
0.001248882734
0.00124967657
0.001252087648
0.001252501854
0.00125113246
0.001250399859
0.001251763431
0.001252971939
0.001253422466
0.001253923634
0.00125495845
0.001255497569
0.001254460542
0.001256061252
0.001258676988
0.001258164877
0.001257126569
0.001256588381
0.001259209588
0.00125933974
0.001259754179
0.001260012155
0.001248144428
0.001248911838
0.001249696012
0.001252121874
0.001252511865
0.001251165872
0.001250425586
0.001253436436
0.001253941911
0.001254975796
0.001255515381
0.001248167478
0.001248935238
0.001180429477
0.001188061084
0.001174176577
0.001182160922
0.001196145546
0.001166737871
0.001175098587
0.001190652256
0.001204514876
0.001157996827
0.001166793867
0.001183980843
0.001200302038
0.001213712152
0.001147734234
0.001158270752
0.001175696845
0.001193567645
0.001207686728
0.001205473323
0.001212644856
0.00122020836
0.001135728671
0.00114527368
0.001166395494
0.00116266741
0.001185519504
0.001182171167
0.001170105883
0.001190893585
0.001202523476
0.001200358151
0.001211290713
0.001219164347
0.001226364868
0.001121637179
0.001138349064
0.001156588201
0.001132147154
0.001151926466
0.001167066745
0.001177221537
0.001188188326
0.001197965001
0.001209375216
0.001206872519
0.001217195066
0.001223261934
0.001222278574
0.001226020511
0.001230467227
0.001230556867
0.001101904549
0.001124974457
0.001145605464
0.001131391618
0.001162709086
0.001158377971
0.001174222678
0.001185165951
0.001194682671
0.001202992862
0.001201640698
0.001213685493
0.001212400733
0.001206327579
0.001211116323
0.001211387455
0.001216481091
0.00122135214
0.001221524901
0.001225415501
0.00122979586
0.001234535594
0.001234227559
0.001089634257
0.001115287305
0.001107435673
0.001084308256
0.00115272298
0.001138079679
0.00112290855
0.001170119154
0.001160709537
0.001164314337
0.001178016537
0.001180368476
0.001190372859
0.001188845839
0.001184881083
0.001193761826
0.001199040329
0.001200108556
0.001205562614
0.001215537195
0.001210533665
0.001214936026
0.001215688884
0.001220372505
0.001225313987
0.001225293963
0.001229744055
0.001234048628
0.001236522803
0.001237229561
0.001238352386
0.001095736865
0.001078175032
0.001112774247
0.001073836349
0.001158645842
0.001157436287
0.001149953692
0.001145894523