/*--------------------------------*- C++ -*----------------------------------*\
  =========                 |
  \\      /  F ield         | OpenFOAM: The Open Source CFD Toolbox
   \\    /   O peration     | Website:  https://openfoam.org
    \\  /    A nd           | Version:  8
     \\/     M anipulation  |
\*---------------------------------------------------------------------------*/






FoamFile
{
    version     2.0;
    format      ascii;
    class       volSymmTensorField;
    location    "0";
    object      TauDDES;
}
// * * * * * * * * * * * * * * * * * * * * * * * * * * * * * * * * * * * * * //

dimensions      [0 2 -2 0 0 0 0];


internalField   nonuniform List<symmTensor>
23940
(
( 1.983842412e-05 -6.901692359e-06 -2.838206683e-07 1.230006001e-05 -3.19410816e-07 1.621396223e-05 )
( 1.948688805e-05 -6.761541044e-06 -3.137302258e-07 1.196913399e-05 -3.140259821e-07 1.608223829e-05 )
( 1.896582398e-05 -5.955453616e-06 -1.941178738e-07 1.118618729e-05 -3.020686847e-07 1.665393029e-05 )
( 1.913204869e-05 -6.617137842e-06 -3.367474619e-07 1.164688911e-05 -3.06421498e-07 1.599718235e-05 )
( 1.866369712e-05 -5.819096714e-06 -2.051009744e-07 1.083359348e-05 -2.943623656e-07 1.655637789e-05 )
( 1.843353311e-05 -4.982821338e-06 -9.385216515e-08 9.872028386e-06 -2.454133323e-07 1.712948142e-05 )
( 1.876777969e-05 -6.466573268e-06 -3.521506926e-07 1.132751004e-05 -2.963945462e-07 1.596409857e-05 )
( 1.836472075e-05 -5.677019544e-06 -2.094499791e-07 1.048507966e-05 -2.881361638e-07 1.651735511e-05 )
( 1.819552199e-05 -4.858207376e-06 -1.017807989e-07 9.508314179e-06 -2.427194659e-07 1.708587661e-05 )
( 1.853047252e-05 -3.974894753e-06 -1.017317857e-07 8.269686077e-06 -1.838314176e-07 1.776990939e-05 )
( 1.805854663e-05 -5.523399523e-06 -2.119302849e-07 1.013249494e-05 -2.82276801e-07 1.65426809e-05 )
( 1.840955338e-05 -6.304179351e-06 -3.610497004e-07 1.10046758e-05 -2.827074184e-07 1.599071038e-05 )
( 1.795132266e-05 -4.723428901e-06 -1.100279192e-07 9.14521388e-06 -2.467480158e-07 1.710044307e-05 )
( 1.831473855e-05 -3.863910933e-06 -1.08259762e-07 7.916208233e-06 -1.908432949e-07 1.773427357e-05 )
( 1.903358134e-05 -3.357774631e-06 -1.580537941e-07 7.207438557e-06 -1.528796645e-07 1.821726801e-05 )
( 1.893847184e-05 -3.330289474e-06 -1.569361814e-07 7.081507647e-06 -1.537455461e-07 1.817496013e-05 )
( 1.769421579e-05 -4.576769243e-06 -1.203837456e-07 8.78587889e-06 -2.500933078e-07 1.716161933e-05 )
( 1.775819874e-05 -5.35294248e-06 -2.13925361e-07 9.772951671e-06 -2.723006105e-07 1.663131115e-05 )
( 1.806020191e-05 -6.122183095e-06 -3.627698391e-07 1.067015819e-05 -2.61950845e-07 1.609116043e-05 )
( 1.807414264e-05 -3.736657618e-06 -1.125500404e-07 7.554263902e-06 -1.978595492e-07 1.774430348e-05 )
( 1.881089338e-05 -3.264064617e-06 -1.534177017e-07 6.881679838e-06 -1.591160839e-07 1.814960888e-05 )
( 1.869447442e-05 -3.22215169e-06 -1.445402802e-07 6.745812243e-06 -1.620411609e-07 1.813120252e-05 )
( 1.963455361e-05 -2.718309588e-06 -1.848887621e-07 5.744546797e-06 -1.229735034e-07 1.822432387e-05 )
( 1.951609556e-05 -2.683874754e-06 -1.77168161e-07 5.601128578e-06 -1.214597063e-07 1.81792966e-05 )
( 1.776949284e-05 -3.563881137e-06 -1.145913515e-07 7.13892814e-06 -1.979295519e-07 1.778816477e-05 )
( 1.743754547e-05 -4.25095368e-06 -1.257328819e-07 8.166716725e-06 -2.379072725e-07 1.736107515e-05 )
( 1.748278737e-05 -5.159062312e-06 -2.116890983e-07 9.410084203e-06 -2.522211275e-07 1.681287904e-05 )
( 1.771988173e-05 -5.916916052e-06 -3.524741601e-07 1.03237353e-05 -2.311614651e-07 1.628022619e-05 )
( 1.855083428e-05 -3.148259566e-06 -1.399483551e-07 6.540696631e-06 -1.618066676e-07 1.813233393e-05 )
( 1.842419988e-05 -3.086160859e-06 -1.313177478e-07 6.384233529e-06 -1.601683408e-07 1.81372925e-05 )
( 1.938003516e-05 -2.638719934e-06 -1.659505813e-07 5.464801689e-06 -1.20726142e-07 1.814176721e-05 )
( 1.923306445e-05 -2.583752121e-06 -1.529898697e-07 5.309633252e-06 -1.187413119e-07 1.813542258e-05 )
( 2.010794014e-05 -2.322788532e-06 -1.761946749e-07 4.734642971e-06 -9.90768001e-08 1.811219045e-05 )
( 2.004783528e-05 -2.312106972e-06 -1.708000781e-07 4.69648603e-06 -9.980935545e-08 1.808773231e-05 )
( 1.992107354e-05 -2.283741651e-06 -1.626217312e-07 4.575558251e-06 -9.643567722e-08 1.804376188e-05 )
( 1.997816253e-05 -2.295006198e-06 -1.657073483e-07 4.620055279e-06 -9.797737022e-08 1.80606894e-05 )
( 1.75702844e-05 -3.369927072e-06 -1.123673528e-07 6.763896181e-06 -1.89245867e-07 1.786145731e-05 )
( 1.827305459e-05 -2.984273124e-06 -1.25116415e-07 6.151999969e-06 -1.543902499e-07 1.816434451e-05 )
( 1.814335701e-05 -2.890007863e-06 -1.187749632e-07 5.957033409e-06 -1.451966227e-07 1.819898171e-05 )
( 1.746054841e-05 -3.642099955e-06 -1.15008902e-07 7.208165243e-06 -2.099334182e-07 1.768828406e-05 )
( 1.73650842e-05 -3.558942808e-06 -1.067392645e-07 7.04670083e-06 -2.061688775e-07 1.773834265e-05 )
( 1.718022941e-05 -4.041146894e-06 -1.197954163e-07 7.756580089e-06 -2.209301897e-07 1.755999438e-05 )
( 1.720515138e-05 -4.932648608e-06 -1.988863829e-07 9.035822586e-06 -2.205667613e-07 1.705734394e-05 )
( 1.738660831e-05 -5.682673873e-06 -3.260284132e-07 9.954002962e-06 -1.913566194e-07 1.656325912e-05 )
( 1.908900958e-05 -2.520506996e-06 -1.456318728e-07 5.156019142e-06 -1.101461962e-07 1.813006384e-05 )
( 1.893877925e-05 -2.439341188e-06 -1.372810061e-07 4.973696832e-06 -1.036901196e-07 1.81510859e-05 )
( 1.984330447e-05 -2.256950665e-06 -1.568396044e-07 4.501318472e-06 -9.431491321e-08 1.802876795e-05 )
( 1.97764075e-05 -2.237250555e-06 -1.52315863e-07 4.455371709e-06 -9.251379396e-08 1.802265433e-05 )
( 1.963010072e-05 -2.182022854e-06 -1.454218364e-07 4.320278094e-06 -8.447993594e-08 1.801506187e-05 )
( 1.968807737e-05 -2.204417569e-06 -1.456509864e-07 4.373766842e-06 -9.000004297e-08 1.802041879e-05 )
( 2.046502777e-05 -1.895814194e-06 -1.790715061e-07 3.540503712e-06 -6.692307863e-08 1.768691618e-05 )
( 2.039455831e-05 -1.880782975e-06 -1.725137935e-07 3.490389645e-06 -6.718415335e-08 1.765179877e-05 )
( 2.026741458e-05 -1.85044405e-06 -1.619340679e-07 3.400239848e-06 -6.443930545e-08 1.759896259e-05 )
( 2.032882367e-05 -1.867087803e-06 -1.670647123e-07 3.448728194e-06 -6.666221708e-08 1.762048305e-05 )
( 1.795590651e-05 -2.779132501e-06 -1.102861091e-07 5.746529951e-06 -1.398671543e-07 1.824801075e-05 )
( 1.744804467e-05 -3.258682909e-06 -1.007951624e-07 6.548538749e-06 -1.86347151e-07 1.793594129e-05 )
( 1.879065894e-05 -2.345068879e-06 -1.305248816e-07 4.790160801e-06 -9.540548973e-08 1.817523844e-05 )
( 1.862255885e-05 -2.224444188e-06 -1.21602028e-07 4.572356829e-06 -8.974758714e-08 1.823140519e-05 )
( 1.71934953e-05 -3.390480515e-06 -9.55455306e-08 6.729881534e-06 -1.962189486e-07 1.787031033e-05 )
( 1.715123835e-05 -3.371401817e-06 -9.321527727e-08 6.691199815e-06 -1.921021209e-07 1.794977288e-05 )
( 1.696011896e-05 -3.885339538e-06 -1.135906942e-07 7.492476016e-06 -1.992628142e-07 1.786215762e-05 )
( 1.689989767e-05 -4.669574992e-06 -1.774098166e-07 8.644714399e-06 -1.843705633e-07 1.740137668e-05 )
( 1.704644455e-05 -5.426533789e-06 -2.844406595e-07 9.584979125e-06 -1.507853113e-07 1.696639993e-05 )
( 1.954829531e-05 -2.141531922e-06 -1.427023761e-07 4.236657333e-06 -7.746558595e-08 1.801669714e-05 )
( 1.948471618e-05 -2.109655497e-06 -1.408307071e-07 4.177160918e-06 -7.306720562e-08 1.801805047e-05 )
( 1.933220483e-05 -2.021937462e-06 -1.334005475e-07 4.012264071e-06 -6.442597567e-08 1.803736814e-05 )
( 1.939593858e-05 -2.061842451e-06 -1.370571425e-07 4.08158985e-06 -6.823687215e-08 1.802947736e-05 )
( 2.019786007e-05 -1.830655833e-06 -1.572243207e-07 3.357016794e-06 -6.113580753e-08 1.757540304e-05 )
( 2.0127276e-05 -1.803444661e-06 -1.511521504e-07 3.307986844e-06 -5.736399089e-08 1.756283018e-05 )
( 1.997798063e-05 -1.740024118e-06 -1.424743914e-07 3.205497023e-06 -4.688486399e-08 1.753632932e-05 )
( 2.004901398e-05 -1.773773874e-06 -1.459281265e-07 3.261837719e-06 -5.281486182e-08 1.754727782e-05 )
( 2.052668424e-05 -1.635580247e-06 -2.008161459e-07 2.750289241e-06 -4.450877e-08 1.72187174e-05 )
( 2.05012384e-05 -1.627651613e-06 -1.963409915e-07 2.732957e-06 -4.46768027e-08 1.720114233e-05 )
( 2.042836422e-05 -1.610709319e-06 -1.872571147e-07 2.692101816e-06 -4.496402539e-08 1.715690451e-05 )
( 2.04479511e-05 -1.61843559e-06 -1.911107717e-07 2.708105512e-06 -4.520780195e-08 1.717099622e-05 )
( 2.030505311e-05 -1.576476848e-06 -1.724811796e-07 2.621287422e-06 -4.085779537e-08 1.708841774e-05 )
( 2.032580778e-05 -1.58666785e-06 -1.763669104e-07 2.638568503e-06 -4.282182786e-08 1.710169636e-05 )
( 2.038715866e-05 -1.603184728e-06 -1.838419053e-07 2.674883717e-06 -4.487430161e-08 1.713544589e-05 )
( 2.036702972e-05 -1.594541118e-06 -1.79811849e-07 2.657946879e-06 -4.39047696e-08 1.712133417e-05 )
( 1.846542e-05 -2.0016912e-06 -1.086845742e-07 4.217135938e-06 -8.108835914e-08 1.83172815e-05 )
( 1.786105895e-05 -2.532969802e-06 -1.00255285e-07 5.299205895e-06 -1.272193941e-07 1.835252078e-05 )
( 1.727398558e-05 -3.09440793e-06 -8.925483286e-08 6.255949302e-06 -1.799990912e-07 1.80362731e-05 )
( 1.924742901e-05 -1.962612714e-06 -1.299741115e-07 3.913498858e-06 -5.898809974e-08 1.805536522e-05 )
( 1.917236659e-05 -1.909924777e-06 -1.258397049e-07 3.835255484e-06 -5.811392612e-08 1.806965156e-05 )
( 1.897967195e-05 -1.771235475e-06 -1.148026882e-07 3.629263574e-06 -5.54321673e-08 1.812972732e-05 )
( 1.905855061e-05 -1.835353601e-06 -1.200403972e-07 3.717650543e-06 -5.657947355e-08 1.810023423e-05 )
( 1.716833685e-05 -2.917534403e-06 -8.454182421e-08 5.979879916e-06 -1.72443805e-07 1.82128806e-05 )
( 1.706035982e-05 -3.251156386e-06 -9.081833952e-08 6.511967058e-06 -1.802693248e-07 1.82357835e-05 )
( 1.689872079e-05 -3.139221917e-06 -9.54074153e-08 6.358303835e-06 -1.737769395e-07 1.847618114e-05 )
( 1.658452129e-05 -3.553896477e-06 -1.08616085e-07 7.046887731e-06 -1.769290208e-07 1.82894164e-05 )
( 1.655575761e-05 -4.397120392e-06 -1.517615402e-07 8.262287338e-06 -1.543607198e-07 1.78627015e-05 )
( 1.664366755e-05 -5.139389941e-06 -2.309224101e-07 9.228252566e-06 -1.219605394e-07 1.745214468e-05 )
( 1.990767851e-05 -1.704475949e-06 -1.396465308e-07 3.152256795e-06 -4.067549852e-08 1.752052594e-05 )
( 1.98276739e-05 -1.660427984e-06 -1.349995244e-07 3.091530289e-06 -3.621314804e-08 1.751917262e-05 )
( 1.965942647e-05 -1.559828888e-06 -1.244538055e-07 2.962110102e-06 -2.774879704e-08 1.752458775e-05 )
( 1.974244151e-05 -1.613358336e-06 -1.290387672e-07 3.03219349e-06 -3.322699627e-08 1.751628224e-05 )
( 2.02601168e-05 -1.56613055e-06 -1.69280554e-07 2.604041356e-06 -3.893777745e-08 1.706995135e-05 )
( 2.023786874e-05 -1.553628181e-06 -1.654105404e-07 2.586339406e-06 -3.629670076e-08 1.705746763e-05 )
( 2.016285544e-05 -1.525741254e-06 -1.565711045e-07 2.553302465e-06 -3.251099656e-08 1.703690941e-05 )
( 2.01891944e-05 -1.540568292e-06 -1.613037171e-07 2.568053787e-06 -3.411403782e-08 1.704322312e-05 )
( 2.000376116e-05 -1.454676521e-06 -1.411399069e-07 2.467923878e-06 -2.09858495e-08 1.698860069e-05 )
( 2.002976362e-05 -1.474876626e-06 -1.448906488e-07 2.493126885e-06 -2.477838201e-08 1.700096982e-05 )
( 2.010888056e-05 -1.507915158e-06 -1.523844162e-07 2.531875225e-06 -2.956545053e-08 1.70209496e-05 )
( 2.007878538e-05 -1.490734462e-06 -1.4739976e-07 2.515489996e-06 -2.800583587e-08 1.701591827e-05 )
( 2.032597331e-05 -1.376456794e-06 -2.173180889e-07 2.071514928e-06 -2.598396698e-08 1.668758341e-05 )
( 2.026791117e-05 -1.358909458e-06 -2.050359029e-07 2.044948133e-06 -2.636779506e-08 1.664370757e-05 )
( 2.028872223e-05 -1.366910396e-06 -2.101660499e-07 2.055808864e-06 -2.644458696e-08 1.666072421e-05 )
( 2.014271558e-05 -1.321533432e-06 -1.843575745e-07 1.992378657e-06 -2.194190252e-08 1.65626152e-05 )
( 2.016487815e-05 -1.330399527e-06 -1.8903593e-07 2.003223472e-06 -2.350018136e-08 1.657855864e-05 )
( 2.022782064e-05 -1.348905698e-06 -1.996676815e-07 2.029894631e-06 -2.581663061e-08 1.661963688e-05 )
( 2.020471948e-05 -1.341004008e-06 -1.947960158e-07 2.018941359e-06 -2.508529207e-08 1.660291127e-05 )
( 1.885263919e-05 -1.676210445e-06 -1.076883862e-07 3.501313358e-06 -5.4613011e-08 1.816913391e-05 )
( 1.874028567e-05 -1.59135061e-06 -1.021169425e-07 3.404613608e-06 -5.48101653e-08 1.821260958e-05 )
( 1.848131069e-05 -1.677296268e-06 -9.732939787e-08 3.645533752e-06 -6.759609761e-08 1.838372191e-05 )
( 1.821889236e-05 -2.028988092e-06 -1.013117554e-07 4.316679679e-06 -8.866955881e-08 1.840947152e-05 )
( 1.763929686e-05 -2.322822638e-06 -9.259657219e-08 4.977299341e-06 -1.263870217e-07 1.848836473e-05 )
( 1.811736547e-05 -1.941233677e-06 -9.766755937e-08 4.196974714e-06 -8.80581581e-08 1.847446219e-05 )
( 1.955590051e-05 -1.498042025e-06 -1.171106661e-07 2.894028285e-06 -2.516247122e-08 1.753394281e-05 )
( 1.944578617e-05 -1.427708298e-06 -1.115410839e-07 2.811833383e-06 -2.369500685e-08 1.754921686e-05 )
( 1.914977838e-05 -1.249275556e-06 -9.805468437e-08 2.605881718e-06 -2.456721226e-08 1.756560232e-05 )
( 1.93079577e-05 -1.347478701e-06 -1.050599678e-07 2.723391162e-06 -2.471727356e-08 1.756382699e-05 )
( 1.703760245e-05 -2.682002105e-06 -8.348696667e-08 5.6576323e-06 -1.605970681e-07 1.854638685e-05 )
( 1.741377855e-05 -2.141765435e-06 -8.481301705e-08 4.740900749e-06 -1.281480166e-07 1.866687307e-05 )
( 1.677517503e-05 -2.398796141e-06 -8.989993461e-08 5.267251709e-06 -1.550430966e-07 1.892514229e-05 )
( 1.66487971e-05 -2.914370725e-06 -1.002585677e-07 6.089401268e-06 -1.655296984e-07 1.880072159e-05 )
( 1.642441202e-05 -2.713623417e-06 -1.037689827e-07 5.891495675e-06 -1.6090911e-07 1.913930646e-05 )
( 1.611651169e-05 -3.133305199e-06 -1.019956386e-07 6.595293598e-06 -1.601729309e-07 1.899549898e-05 )
( 1.610697473e-05 -3.974626452e-06 -1.204670923e-07 7.751643352e-06 -1.371631981e-07 1.857098687e-05 )
( 1.618097303e-05 -4.816407454e-06 -1.736241302e-07 8.884893759e-06 -1.111084771e-07 1.805808097e-05 )
( 1.995160164e-05 -1.436952061e-06 -1.383475592e-07 2.449743079e-06 -1.990015619e-08 1.697866719e-05 )
( 1.992218859e-05 -1.415814495e-06 -1.35182475e-07 2.427135087e-06 -1.763927848e-08 1.697247171e-05 )
( 1.98244561e-05 -1.368050448e-06 -1.273978114e-07 2.377373676e-06 -1.46338035e-08 1.696221443e-05 )
( 1.986367897e-05 -1.39452618e-06 -1.322220129e-07 2.40374402e-06 -1.619502932e-08 1.696560503e-05 )
( 1.959686415e-05 -1.255380084e-06 -1.129403557e-07 2.275024372e-06 -1.067173283e-08 1.69699706e-05 )
( 1.965036063e-05 -1.288101203e-06 -1.168403472e-07 2.302314442e-06 -1.154950269e-08 1.69619052e-05 )
( 1.976192652e-05 -1.345487703e-06 -1.244414136e-07 2.358100573e-06 -1.454711462e-08 1.69597588e-05 )
( 1.971832535e-05 -1.315923441e-06 -1.198028912e-07 2.330071993e-06 -1.320646348e-08 1.696091022e-05 )
( 2.01004641e-05 -1.308747983e-06 -1.784896284e-07 1.976750355e-06 -1.944657058e-08 1.653936124e-05 )
( 2.007238436e-05 -1.298114285e-06 -1.735889157e-07 1.966441459e-06 -1.735178934e-08 1.652551873e-05 )
( 1.99933238e-05 -1.271200517e-06 -1.627591786e-07 1.944867336e-06 -1.311464093e-08 1.649754995e-05 )
( 2.0023248e-05 -1.283787014e-06 -1.676081922e-07 1.954635309e-06 -1.51601558e-08 1.650849481e-05 )
( 1.981392597e-05 -1.199999815e-06 -1.400685221e-07 1.88374554e-06 -5.390324187e-09 1.644531403e-05 )
( 1.98517937e-05 -1.216830697e-06 -1.44816525e-07 1.898852361e-06 -6.722520762e-09 1.645519296e-05 )
( 1.99396145e-05 -1.252329639e-06 -1.560410254e-07 1.930014378e-06 -1.084567103e-08 1.648215039e-05 )
( 1.99076967e-05 -1.237949959e-06 -1.512213288e-07 1.918159796e-06 -9.092197217e-09 1.647169847e-05 )
( 2.014050369e-05 -1.269787617e-06 -2.249519468e-07 1.828556947e-06 -2.041679892e-08 1.641686868e-05 )
( 2.008045703e-05 -1.251131152e-06 -2.116406392e-07 1.805134161e-06 -2.045077885e-08 1.637097921e-05 )
( 2.010771823e-05 -1.260098315e-06 -2.174352431e-07 1.817558427e-06 -2.07092139e-08 1.639125367e-05 )
( 1.995061393e-05 -1.212185452e-06 -1.889100929e-07 1.759346787e-06 -1.577680209e-08 1.628607242e-05 )
( 1.997827712e-05 -1.22268284e-06 -1.94764624e-07 1.772132237e-06 -1.763509161e-08 1.630593579e-05 )
( 2.004402813e-05 -1.241841801e-06 -2.060648967e-07 1.795023536e-06 -2.000446919e-08 1.634853834e-05 )
( 2.001471512e-05 -1.232414888e-06 -2.004204589e-07 1.782485242e-06 -1.890364487e-08 1.632841122e-05 )
( 1.899666313e-05 -1.202759336e-06 -9.310492288e-08 2.549432111e-06 -2.512106079e-08 1.765646266e-05 )
( 1.86574398e-05 -1.411993367e-06 -9.444322302e-08 3.137475915e-06 -5.132672598e-08 1.82864278e-05 )
( 1.875588532e-05 -1.101725047e-06 -8.791276684e-08 2.456267794e-06 -2.641138686e-08 1.775536657e-05 )
( 1.842280108e-05 -1.504760235e-06 -9.091210273e-08 3.370780632e-06 -6.2083231e-08 1.845089355e-05 )
( 1.797154255e-05 -1.830625024e-06 -9.596036676e-08 4.058810191e-06 -8.93827945e-08 1.853814865e-05 )
( 1.78411974e-05 -1.708961463e-06 -8.988176603e-08 3.902320714e-06 -9.101447773e-08 1.861179953e-05 )
( 1.951304148e-05 -1.222316541e-06 -1.089070665e-07 2.248443025e-06 -9.826799818e-09 1.697601147e-05 )
( 1.945368422e-05 -1.186515078e-06 -1.052003569e-07 2.217957672e-06 -9.659233413e-09 1.698554843e-05 )
( 1.929324935e-05 -1.105188403e-06 -9.93749083e-08 2.1465587e-06 -1.024099294e-08 1.700253233e-05 )
( 1.936353692e-05 -1.149272975e-06 -1.022913096e-07 2.184041023e-06 -9.634615772e-09 1.699296081e-05 )
( 1.885866732e-05 -8.96508709e-07 -8.745884372e-08 1.959607516e-06 -1.245617653e-08 1.700048597e-05 )
( 1.894337402e-05 -9.332075024e-07 -9.051947814e-08 1.989629482e-06 -1.203813049e-08 1.698240885e-05 )
( 1.91749441e-05 -1.056642759e-06 -9.724514882e-08 2.105104386e-06 -1.142811712e-08 1.700595749e-05 )
( 1.908957711e-05 -9.975169633e-07 -9.333592033e-08 2.051745923e-06 -1.18835084e-08 1.699774293e-05 )
( 1.718562271e-05 -1.9041114e-06 -8.201295998e-08 4.445859304e-06 -1.272181578e-07 1.897253424e-05 )
( 1.750684351e-05 -1.570012955e-06 -7.892412413e-08 3.800352033e-06 -1.056520631e-07 1.894910565e-05 )
( 1.765707202e-05 -1.59256092e-06 -8.428882836e-08 3.769660907e-06 -9.600299222e-08 1.876773968e-05 )
( 1.647779391e-05 -2.046875579e-06 -1.012922866e-07 4.861840353e-06 -1.470619395e-07 1.93743017e-05 )
( 1.67418857e-05 -1.526097094e-06 -9.140883606e-08 4.027917385e-06 -1.260575573e-07 1.946210978e-05 )
( 1.609928586e-05 -1.772472501e-06 -1.07484496e-07 4.629437171e-06 -1.445780811e-07 1.991493446e-05 )
( 1.608072125e-05 -2.417662472e-06 -1.044132745e-07 5.60644321e-06 -1.560435976e-07 1.958365465e-05 )
( 1.573804911e-05 -2.129700306e-06 -1.068981064e-07 5.372385203e-06 -1.524963125e-07 2.001270332e-05 )
( 1.595420144e-05 -3.274082019e-06 -9.982117177e-08 6.831141945e-06 -1.488920844e-07 1.915739085e-05 )
( 1.565373168e-05 -2.594061243e-06 -9.922793254e-08 6.03449098e-06 -1.556683173e-07 1.979570516e-05 )
( 1.548002911e-05 -3.470826641e-06 -9.295757764e-08 7.323826139e-06 -1.33034348e-07 1.95174016e-05 )
( 1.56778533e-05 -3.077557949e-06 -1.016036393e-07 6.676478733e-06 -1.44932045e-07 1.959704059e-05 )
( 1.559725206e-05 -4.321585493e-06 -1.162145296e-07 8.413372598e-06 -1.083559624e-07 1.896927643e-05 )
( 1.975385567e-05 -1.178190587e-06 -1.352724155e-07 1.864888759e-06 -4.037957968e-09 1.643244832e-05 )
( 1.971112761e-05 -1.161708269e-06 -1.315917046e-07 1.854429343e-06 -4.958452759e-09 1.643046926e-05 )
( 1.958898065e-05 -1.113407166e-06 -1.220926009e-07 1.815944529e-06 -4.348553073e-09 1.642003372e-05 )
( 1.963968134e-05 -1.134226295e-06 -1.26103032e-07 1.831104896e-06 -4.102994833e-09 1.642156894e-05 )
( 1.928295387e-05 -9.948843172e-07 -1.047214724e-07 1.733121053e-06 -4.429245859e-09 1.643254654e-05 )
( 1.935615728e-05 -1.022845595e-06 -1.082175984e-07 1.750105184e-06 -4.037680856e-09 1.64230114e-05 )
( 1.950636033e-05 -1.082406584e-06 -1.162299696e-07 1.793360525e-06 -4.573041945e-09 1.641791096e-05 )
( 1.944636824e-05 -1.058351359e-06 -1.125380109e-07 1.777137072e-06 -4.788794694e-09 1.642076495e-05 )
( 1.991224963e-05 -1.200899192e-06 -1.831135137e-07 1.749005605e-06 -1.385569082e-08 1.626468656e-05 )
( 1.987836185e-05 -1.188361693e-06 -1.770994515e-07 1.736128638e-06 -1.146418072e-08 1.624619654e-05 )
( 1.979666558e-05 -1.160608463e-06 -1.652673518e-07 1.71570673e-06 -7.334778118e-09 1.621443153e-05 )
( 1.983251605e-05 -1.174703129e-06 -1.712010231e-07 1.726027904e-06 -9.097941067e-09 1.622757372e-05 )
( 1.96043402e-05 -1.088074896e-06 -1.413436337e-07 1.656298309e-06 8.702323306e-10 1.615657675e-05 )
( 1.965378215e-05 -1.108731567e-06 -1.474741822e-07 1.675410658e-06 -1.080270762e-09 1.616921509e-05 )
( 1.974890074e-05 -1.143021791e-06 -1.594189598e-07 1.700367193e-06 -4.013127608e-09 1.619431168e-05 )
( 1.970758422e-05 -1.126813004e-06 -1.533832688e-07 1.688707471e-06 -2.533923071e-09 1.618372153e-05 )
( 1.943293682e-05 -1.056858878e-06 -2.324614741e-07 1.394194101e-06 -1.421795215e-08 1.566177343e-05 )
( 1.936033368e-05 -1.03799664e-06 -2.198166698e-07 1.377523517e-06 -1.320902854e-08 1.561387944e-05 )
( 1.938734749e-05 -1.048779041e-06 -2.265063159e-07 1.387693715e-06 -1.398145599e-08 1.563513615e-05 )
( 1.920771683e-05 -9.967011465e-07 -1.963621941e-07 1.344110387e-06 -8.944995855e-09 1.552470712e-05 )
( 1.923727541e-05 -1.008890194e-06 -2.026202708e-07 1.354590836e-06 -1.056189891e-08 1.554376649e-05 )
( 1.931359111e-05 -1.029194891e-06 -2.148057945e-07 1.371343728e-06 -1.275749995e-08 1.558914846e-05 )
( 1.928406346e-05 -1.018087573e-06 -2.084366315e-07 1.361160002e-06 -1.156618357e-08 1.556891948e-05 )
( 1.884310586e-05 -9.246148807e-07 -8.532381912e-08 1.99696774e-06 -1.241212999e-08 1.714045902e-05 )
( 1.867665742e-05 -8.933311051e-07 -8.239913996e-08 1.977975444e-06 -1.320504506e-08 1.722739216e-05 )
( 1.849506953e-05 -1.257885515e-06 -9.107974819e-08 2.920252882e-06 -4.987234092e-08 1.830634392e-05 )
( 1.852361311e-05 -9.687486227e-07 -8.411372221e-08 2.320038448e-06 -2.774052987e-08 1.782930485e-05 )
( 1.840323239e-05 -7.780961369e-07 -7.951284431e-08 1.913358574e-06 -1.46911141e-08 1.741679444e-05 )
( 1.851123125e-05 -8.25715972e-07 -7.948201386e-08 1.935347655e-06 -1.372735348e-08 1.732693818e-05 )
( 1.822271224e-05 -1.374296517e-06 -8.855242584e-08 3.224040483e-06 -6.454487789e-08 1.854852053e-05 )
( 1.803365376e-05 -1.257849817e-06 -8.09779408e-08 3.104580856e-06 -6.531826813e-08 1.864344813e-05 )
( 1.917130794e-05 -9.542389989e-07 -9.977938475e-08 1.707779575e-06 -5.631889621e-09 1.644690201e-05 )
( 1.908632657e-05 -9.217917523e-07 -9.787721211e-08 1.687563326e-06 -6.317411039e-09 1.646162855e-05 )
( 1.885973325e-05 -8.353451904e-07 -9.299569825e-08 1.631661121e-06 -7.864360718e-09 1.649502155e-05 )
( 1.896256799e-05 -8.761834351e-07 -9.456159944e-08 1.657036591e-06 -6.948663422e-09 1.647812132e-05 )
( 1.822551894e-05 -6.10861207e-07 -8.355662828e-08 1.467638754e-06 -1.060534061e-08 1.648583748e-05 )
( 1.831655391e-05 -6.329306075e-07 -8.628547477e-08 1.471262408e-06 -1.062361221e-08 1.645058546e-05 )
( 1.870171764e-05 -7.750269901e-07 -9.114551602e-08 1.589213639e-06 -9.15802989e-09 1.650381819e-05 )
( 1.856072049e-05 -7.206267583e-07 -9.004133261e-08 1.547445891e-06 -9.727731509e-09 1.649694786e-05 )
( 1.739198524e-05 -1.500967528e-06 -7.75118707e-08 3.741248747e-06 -1.088300223e-07 1.909077946e-05 )
( 1.719487591e-05 -1.387956218e-06 -7.679829395e-08 3.622917347e-06 -1.102017961e-07 1.92460484e-05 )
( 1.751919262e-05 -1.103212185e-06 -7.413989067e-08 3.050449777e-06 -8.1121172e-08 1.899764538e-05 )
( 1.774986958e-05 -1.138459197e-06 -7.845534356e-08 3.013582955e-06 -7.139622227e-08 1.87915175e-05 )
( 1.648584475e-05 -1.494413482e-06 -1.009347841e-07 4.081529823e-06 -1.308776802e-07 1.964874536e-05 )
( 1.62787419e-05 -1.342687256e-06 -1.03009242e-07 3.950192877e-06 -1.256033642e-07 1.989399789e-05 )
( 1.643035102e-05 -1.07726396e-06 -9.514552346e-08 3.520868177e-06 -1.169413792e-07 1.998485095e-05 )
( 1.666329263e-05 -1.046301804e-06 -8.426712839e-08 3.333908353e-06 -1.079838015e-07 1.979412082e-05 )
( 1.690226054e-05 -1.201253895e-06 -8.007719288e-08 3.447716381e-06 -1.109390837e-07 1.952679668e-05 )
( 1.574691669e-05 -1.535909178e-06 -1.102789113e-07 4.456929673e-06 -1.395282965e-07 2.038195271e-05 )
( 1.579137097e-05 -1.106311174e-06 -1.065922035e-07 3.850828762e-06 -1.261180813e-07 2.057785241e-05 )
( 1.599575444e-05 -1.170455562e-06 -1.050135054e-07 3.83188808e-06 -1.247686328e-07 2.027226583e-05 )
( 1.515517397e-05 -1.567509912e-06 -1.043926403e-07 4.881921086e-06 -1.445084905e-07 2.090053385e-05 )
( 1.513420102e-05 -1.096566393e-06 -1.083215579e-07 4.144729246e-06 -1.30030088e-07 2.11337956e-05 )
( 1.518995123e-05 -2.192990451e-06 -1.023104801e-07 5.66566132e-06 -1.522523547e-07 2.051914089e-05 )
( 1.53266883e-05 -3.589179869e-06 -8.073380542e-08 7.553353953e-06 -1.213218468e-07 1.972670361e-05 )
( 1.490166596e-05 -2.837136662e-06 -7.979126337e-08 6.787362508e-06 -1.300723227e-07 2.058523569e-05 )
( 1.524535037e-05 -2.710510671e-06 -9.386075561e-08 6.393350304e-06 -1.44410393e-07 2.024896276e-05 )
( 1.485803841e-05 -2.360650114e-06 -9.480982044e-08 6.156715699e-06 -1.376425018e-07 2.087124085e-05 )
( 1.500554026e-05 -3.339228897e-06 -8.020090547e-08 7.391746294e-06 -1.121749733e-07 2.029541065e-05 )
( 1.954195432e-05 -1.06976313e-06 -1.362823241e-07 1.6459785e-06 9.879064233e-11 1.614907887e-05 )
( 1.948475801e-05 -1.048526656e-06 -1.31145228e-07 1.630164888e-06 -1.011061235e-10 1.614425491e-05 )
( 1.934747343e-05 -1.00101704e-06 -1.212591201e-07 1.597768573e-06 -8.260848117e-10 1.613783752e-05 )
( 1.941461232e-05 -1.026558039e-06 -1.265806304e-07 1.616747113e-06 -8.992888656e-10 1.613952918e-05 )
( 1.899488052e-05 -8.847333106e-07 -1.044723348e-07 1.532104989e-06 -4.3065711e-09 1.616597547e-05 )
( 1.908966988e-05 -9.177776974e-07 -1.086798562e-07 1.551355467e-06 -3.281899641e-09 1.6152022e-05 )
( 1.926473851e-05 -9.771872556e-07 -1.16828474e-07 1.587544148e-06 -2.344366479e-09 1.614097164e-05 )
( 1.918408452e-05 -9.475282354e-07 -1.119810875e-07 1.567342565e-06 -2.358542694e-09 1.614556459e-05 )
( 1.915689427e-05 -9.864270396e-07 -1.904719227e-07 1.337370804e-06 -7.613141229e-09 1.550113666e-05 )
( 1.912100379e-05 -9.726743428e-07 -1.84128254e-07 1.326704023e-06 -5.769856593e-09 1.548392538e-05 )
( 1.90236442e-05 -9.444070201e-07 -1.721731735e-07 1.308446599e-06 -2.721998404e-09 1.544840416e-05 )
( 1.906361831e-05 -9.606144431e-07 -1.782535861e-07 1.319802209e-06 -4.437482826e-09 1.546266139e-05 )
( 1.87790647e-05 -8.756464354e-07 -1.501287699e-07 1.265930905e-06 1.562175111e-10 1.539849654e-05 )
( 1.883746336e-05 -8.958815556e-07 -1.554737423e-07 1.279339699e-06 -1.356677271e-10 1.540529047e-05 )
( 1.896004323e-05 -9.3014296e-07 -1.666160472e-07 1.300632448e-06 -1.670543814e-09 1.543046892e-05 )
( 1.891069405e-05 -9.118180628e-07 -1.607936895e-07 1.288096882e-06 -4.423177657e-10 1.541960955e-05 )
( 1.800306927e-05 -8.213111187e-07 -2.201443436e-07 9.365012374e-07 -1.06922311e-08 1.443495239e-05 )
( 1.791226896e-05 -8.020762721e-07 -2.097910681e-07 9.270000874e-07 -9.001789536e-09 1.438612708e-05 )
( 1.795880053e-05 -8.111177294e-07 -2.144279847e-07 9.320509662e-07 -9.679929747e-09 1.440956839e-05 )
( 1.770973904e-05 -7.600233403e-07 -1.895873254e-07 9.073635852e-07 -6.143391573e-09 1.429825443e-05 )
( 1.776174395e-05 -7.708977137e-07 -1.947586554e-07 9.131586012e-07 -6.957455945e-09 1.431886631e-05 )
( 1.786294342e-05 -7.919017548e-07 -2.048855379e-07 9.227671853e-07 -8.405748098e-09 1.436283128e-05 )
( 1.781374158e-05 -7.819697316e-07 -1.999537318e-07 9.176736739e-07 -7.688841563e-09 1.434063597e-05 )
( 1.806073851e-05 -6.124064384e-07 -8.055182832e-08 1.499732889e-06 -1.061358201e-08 1.658174733e-05 )
( 1.791828072e-05 -5.854752771e-07 -7.736176855e-08 1.506032277e-06 -1.035747221e-08 1.672762664e-05 )
( 1.822534432e-05 -1.126984102e-06 -8.691178266e-08 2.798507467e-06 -5.262462466e-08 1.843564678e-05 )
( 1.830102337e-05 -9.259803733e-07 -8.133777385e-08 2.379677881e-06 -3.535742366e-08 1.80959305e-05 )
( 1.847976091e-05 -1.004844535e-06 -8.519266714e-08 2.435645911e-06 -3.369420654e-08 1.799689198e-05 )
( 1.828095265e-05 -7.215486448e-07 -7.818972847e-08 1.88640729e-06 -1.667453553e-08 1.751593663e-05 )
( 1.80414736e-05 -6.115474207e-07 -7.156936732e-08 1.787944257e-06 -1.65649201e-08 1.753642755e-05 )
( 1.814887764e-05 -6.897939784e-07 -7.24576168e-08 1.953855644e-06 -2.235943164e-08 1.775237615e-05 )
( 1.766848436e-05 -4.577117636e-07 -7.26485041e-08 1.456816676e-06 -1.090173996e-08 1.697676998e-05 )
( 1.775825694e-05 -5.180856419e-07 -7.542137581e-08 1.478805416e-06 -1.090712676e-08 1.684472591e-05 )
( 1.796763172e-05 -9.844349051e-07 -7.943619096e-08 2.661182634e-06 -5.387025581e-08 1.856597191e-05 )
( 1.888109909e-05 -8.494696999e-07 -1.006883252e-07 1.514180894e-06 -5.552244886e-09 1.618120586e-05 )
( 1.877082104e-05 -8.109212217e-07 -9.787596866e-08 1.491313355e-06 -6.269976982e-09 1.620126204e-05 )
( 1.851434536e-05 -7.223494549e-07 -9.313293248e-08 1.441303311e-06 -8.231477722e-09 1.62439992e-05 )
( 1.864257865e-05 -7.692445365e-07 -9.563942172e-08 1.469165795e-06 -7.307875638e-09 1.622140735e-05 )
( 1.749352668e-05 -4.390407753e-07 -8.399184992e-08 1.203264787e-06 -1.254158377e-08 1.609883475e-05 )
( 1.788598092e-05 -5.290778518e-07 -8.850515343e-08 1.294604431e-06 -1.139753358e-08 1.619930117e-05 )
( 1.835190596e-05 -6.689578527e-07 -9.201572482e-08 1.408985895e-06 -9.12613185e-09 1.625590812e-05 )
( 1.816792974e-05 -6.059653401e-07 -9.071007412e-08 1.361040177e-06 -1.022408824e-08 1.624958713e-05 )
( 1.7292954e-05 -1.038587698e-06 -7.192449658e-08 3.025052365e-06 -8.594514611e-08 1.914272252e-05 )
( 1.692267324e-05 -8.023473583e-07 -6.024912835e-08 2.770023912e-06 -7.958912818e-08 1.937262095e-05 )
( 1.728860298e-05 -6.768771073e-07 -5.367628475e-08 2.417753194e-06 -5.670868575e-08 1.89256225e-05 )
( 1.767642607e-05 -8.291098084e-07 -7.176639372e-08 2.525933041e-06 -5.498210953e-08 1.870681263e-05 )
( 1.615834117e-05 -8.007381211e-07 -9.176913807e-08 3.24024586e-06 -1.061425152e-07 2.036117621e-05 )
( 1.634547698e-05 -7.634790791e-07 -8.47410746e-08 3.0667386e-06 -1.012608237e-07 2.020717875e-05 )