/*--------------------------------*- C++ -*----------------------------------*\
  =========                 |
  \\      /  F ield         | OpenFOAM: The Open Source CFD Toolbox
   \\    /   O peration     | Website:  https://openfoam.org
    \\  /    A nd           | Version:  8
     \\/     M anipulation  |
\*---------------------------------------------------------------------------*/






FoamFile
{
    version     2.0;
    format      ascii;
    class       volVectorField;
    location    "0";
    object      UDDES;
}
// * * * * * * * * * * * * * * * * * * * * * * * * * * * * * * * * * * * * * //

dimensions      [0 1 -1 0 0 0 0];


internalField   nonuniform List<vector> 
23940
(
( 0.01505758613 0.0009606025997 2.327422953e-05 )
( 0.01502677239 0.001148754964 2.608909563e-05 )
( 0.01459666528 0.0009237846825 2.847789983e-05 )
( 0.01499214116 0.00136066624 2.886845505e-05 )
( 0.01454646233 0.001105950563 3.306787403e-05 )
( 0.01413182635 0.0008723250357 2.451755063e-05 )
( 0.01495594904 0.001598195522 3.123314309e-05 )
( 0.01448803116 0.001311969711 3.653843305e-05 )
( 0.01405264903 0.00104525499 2.848986151e-05 )
( 0.01354570687 0.0007927819388 2.874110123e-07 )
( 0.01442262717 0.001543890103 3.878435018e-05 )
( 0.01492063049 0.001863119774 3.307543011e-05 )
( 0.01396013051 0.001242881175 3.110326361e-05 )
( 0.01342467405 0.0009512092802 3.432733365e-06 )
( 0.01310240198 0.0006866827607 -1.845103907e-05 )
( 0.01304447278 0.0007437850581 -1.669987068e-05 )
( 0.0138605088 0.001465561218 3.271220703e-05 )
( 0.01435472164 0.001804377534 3.997008753e-05 )
( 0.01488890406 0.002157440875 3.441305671e-05 )
( 0.0132825477 0.001134030987 5.728391443e-06 )
( 0.01295541041 0.0008282525814 -1.508561672e-05 )
( 0.01288507041 0.0008943906287 -1.360233728e-05 )
( 0.0124471467 0.0005889207241 -3.569561886e-05 )
( 0.01235680003 0.0006508660736 -3.387676406e-05 )
( 0.01311533246 0.001369809848 7.609168733e-06 )
( 0.01363902446 0.001693594735 2.937705358e-05 )
( 0.01428638212 0.002096062759 4.034024823e-05 )
( 0.01486497838 0.002482657786 3.49652837e-05 )
( 0.01278174669 0.0009926907951 -1.208006961e-05 )
( 0.01269591227 0.001068274956 -1.026130212e-05 )
( 0.0122587122 0.0007125607226 -3.203119559e-05 )
( 0.0121513214 0.0007844601641 -2.952384239e-05 )
( 0.01192537323 0.0005083643482 -4.539202928e-05 )
( 0.01188552193 0.0005284162471 -4.437603639e-05 )
( 0.01177805569 0.0005819277139 -4.250094207e-05 )
( 0.01182397082 0.0005602110177 -4.332871686e-05 )
( 0.01296122 0.001513180789 5.838784091e-06 )
( 0.01257313509 0.00117925636 -8.545539458e-06 )
( 0.01246171817 0.001263724756 -7.004729014e-06 )
( 0.01319755148 0.00156980264 1.322494973e-05 )
( 0.01312989555 0.001658997498 1.381597758e-05 )
( 0.01350688189 0.001973789185 2.902494452e-05 )
( 0.01422277093 0.002423993079 3.919607116e-05 )
( 0.01485516503 0.00283739157 3.427603224e-05 )
( 0.01203286462 0.0008567287005 -2.698859134e-05 )
( 0.01190317329 0.0009384186706 -2.383139872e-05 )
( 0.01171121653 0.0006167775718 -4.126350541e-05 )
( 0.01166059822 0.0006403456209 -3.990951518e-05 )
( 0.01153122447 0.0007028894615 -3.667493729e-05 )
( 0.01158879139 0.0006774641806 -3.801337516e-05 )
( 0.01113435067 0.0004173891502 -5.116138345e-05 )
( 0.01106546819 0.0004424315121 -4.987742068e-05 )
( 0.01093695126 0.0004874642473 -4.745358092e-05 )
( 0.01100321766 0.0004631759948 -4.871818237e-05 )
( 0.01235081255 0.001390947262 -5.310030701e-06 )
( 0.01286969986 0.001621273346 6.229246992e-06 )
( 0.01175871398 0.001020843978 -2.161853263e-05 )
( 0.01159679703 0.001112863887 -1.985073686e-05 )
( 0.01300147083 0.001827579108 1.345236251e-05 )
( 0.01298413239 0.00192001753 1.570524182e-05 )
( 0.01344384626 0.002305510221 3.080957686e-05 )
( 0.01417137496 0.00278595509 3.620817733e-05 )
( 0.01486123353 0.003223063657 3.200848005e-05 )
( 0.0114519801 0.0007437880267 -3.502309846e-05 )
( 0.01138875168 0.0007710493519 -3.353881402e-05 )
( 0.01123292372 0.0008428737638 -3.024786201e-05 )
( 0.01130347699 0.0008139825659 -3.152245336e-05 )
( 0.01086782571 0.0005101995193 -4.604557034e-05 )
( 0.01079564076 0.0005363246892 -4.439470285e-05 )
( 0.01063974854 0.0005892347544 -4.140197416e-05 )
( 0.01071985997 0.0005610508379 -4.277471817e-05 )
( 0.01046677958 0.0003510115203 -5.300515113e-05 )
( 0.01043484546 0.0003618589835 -5.253651398e-05 )
( 0.01035497617 0.0003829561756 -5.142062946e-05 )
( 0.01038411446 0.0003730248136 -5.181993038e-05 )
( 0.01020703092 0.0004217932001 -4.914218152e-05 )
( 0.01024051849 0.0004109879665 -4.965235348e-05 )
( 0.01031467319 0.0003917110444 -5.079546099e-05 )
( 0.01028310135 0.000402188336 -5.031125693e-05 )
( 0.01130909752 0.001199374441 -1.974463339e-05 )
( 0.01207759138 0.00146192871 -5.940874871e-06 )
( 0.0127363205 0.001763612614 5.960112503e-06 )
( 0.01113809831 0.0008902236586 -2.919642429e-05 )
( 0.01105659548 0.0009207393741 -2.882345143e-05 )
( 0.01085531712 0.000999912736 -2.831394704e-05 )
( 0.01094807498 0.000969115179 -2.832357131e-05 )
( 0.01258738246 0.001859579235 6.215420399e-06 )
( 0.01289259642 0.002110435162 1.968956167e-05 )
( 0.01282605901 0.002274605213 2.119981582e-05 )
( 0.01331676915 0.002673737472 2.657282857e-05 )
( 0.01413437258 0.003170561744 3.142690912e-05 )
( 0.01489214599 0.003643807955 2.740307173e-05 )
( 0.01055538096 0.000616079953 -4.029581032e-05 )
( 0.01046780311 0.0006468857755 -3.935526183e-05 )
( 0.01028026827 0.0007093409076 -3.783462671e-05 )
( 0.01037618332 0.0006762726116 -3.846640175e-05 )
( 0.0101629626 0.0004314065736 -4.844286013e-05 )
( 0.01012741961 0.0004426006344 -4.795153654e-05 )
( 0.01004848909 0.0004641420965 -4.67845457e-05 )
( 0.01008183695 0.0004521628143 -4.717727643e-05 )
( 0.009864787571 0.0005095226807 -4.515963519e-05 )
( 0.009911200032 0.0004974037874 -4.534870823e-05 )
( 0.00999690406 0.0004743862955 -4.603138586e-05 )
( 0.009961508214 0.0004868464894 -4.576108768e-05 )
( 0.009722792543 0.0003075233544 -5.275480362e-05 )
( 0.009647160769 0.0003225769615 -5.220979801e-05 )
( 0.009678239934 0.0003160457709 -5.236576544e-05 )
( 0.009483521804 0.0003549919929 -5.072889326e-05 )
( 0.009518181905 0.0003478433355 -5.097801841e-05 )
( 0.009600659832 0.0003314794449 -5.177540515e-05 )
( 0.009567608126 0.0003384894226 -5.150528887e-05 )
( 0.01073030289 0.001050594728 -2.807890814e-05 )
( 0.01062446088 0.001087193144 -2.768896047e-05 )
( 0.01085396204 0.001202936517 -2.321087049e-05 )
( 0.01140533388 0.001311071916 -1.575011629e-05 )
( 0.0118867103 0.001595403068 -6.517637303e-06 )
( 0.01131495647 0.001358915353 -1.554955634e-05 )
( 0.01017769799 0.000741393771 -3.760564505e-05 )
( 0.01006592903 0.0007764314068 -3.767666931e-05 )
( 0.009781823494 0.000836763531 -3.924339762e-05 )
( 0.009938282892 0.0008081627311 -3.831158392e-05 )
( 0.01238225587 0.002003789414 8.894480743e-06 )
( 0.01172691211 0.001709520351 -5.965667697e-06 )
( 0.01216393709 0.002172033535 8.314385013e-06 )
( 0.01271783933 0.002485997276 1.920474642e-05 )
( 0.01262616925 0.002646735637 1.846871237e-05 )
( 0.01317770686 0.003099633846 2.318340012e-05 )
( 0.01403253805 0.003595954739 2.689150097e-05 )
( 0.01495742612 0.004085931927 2.096343633e-05 )
( 0.009816730395 0.0005215778947 -4.494257155e-05 )
( 0.009772310965 0.0005346971448 -4.498936687e-05 )
( 0.009667789564 0.0005600200966 -4.494314999e-05 )
( 0.009718356654 0.0005465332652 -4.487351907e-05 )
( 0.009453898296 0.0006152153364 -4.513601743e-05 )
( 0.009505309165 0.0006003222661 -4.492614971e-05 )
( 0.009615391493 0.0005738487234 -4.502755837e-05 )
( 0.009563246742 0.0005876219948 -4.507520862e-05 )
( 0.009431538172 0.0003647823469 -5.02473813e-05 )
( 0.009395251051 0.0003722766123 -5.003426486e-05 )
( 0.009308302775 0.0003907043429 -4.958488717e-05 )
( 0.009345037863 0.0003828150802 -4.967954374e-05 )
( 0.009111326188 0.0004296722764 -4.968691064e-05 )
( 0.009155082516 0.0004211508203 -4.946113404e-05 )
( 0.009253913537 0.0004016314051 -4.935290053e-05 )
( 0.009215080179 0.0004099661892 -4.945306137e-05 )
( 0.009403220378 0.0002853228361 -5.176553896e-05 )
( 0.009324265644 0.0002992223599 -5.137667176e-05 )
( 0.00936289411 0.0002918688697 -5.155630424e-05 )
( 0.009153396823 0.0003291284665 -5.033323396e-05 )
( 0.009196663275 0.000321128231 -5.056984082e-05 )
( 0.009282070212 0.0003061537282 -5.111619612e-05 )
( 0.009241230786 0.0003138642933 -5.087233149e-05 )
( 0.009690775536 0.0008751881542 -3.99107339e-05 )
( 0.01037632767 0.001114845974 -2.903308268e-05 )
( 0.009554736316 0.0009204252274 -3.995117004e-05 )
( 0.0106122829 0.001220755395 -2.472671622e-05 )
( 0.01120559685 0.001418786589 -1.601253098e-05 )
( 0.01108106412 0.001468342729 -1.611294101e-05 )
( 0.009390931576 0.0006300354726 -4.545607953e-05 )
( 0.009336512536 0.0006450292422 -4.558473665e-05 )
( 0.009204890579 0.0006743292324 -4.619020547e-05 )
( 0.009268742055 0.0006592349382 -4.572970647e-05 )
( 0.008861221373 0.00072010234 -4.899546911e-05 )
( 0.00892589055 0.0007092225715 -4.847625314e-05 )
( 0.009121776558 0.0006892667734 -4.692474249e-05 )
( 0.009036239237 0.0007004438085 -4.78182701e-05 )
( 0.01152328867 0.001841851044 -5.730320026e-06 )
( 0.01100542862 0.001642000745 -1.533168688e-05 )
( 0.0109751625 0.001548866392 -1.551722198e-05 )
( 0.0118862018 0.002321275417 5.947174941e-06 )
( 0.01118489169 0.002000654349 -6.48968944e-06 )
( 0.0117445346 0.002528063022 6.441669939e-06 )
( 0.01250116341 0.002867023926 1.644854638e-05 )
( 0.01238274388 0.003041972639 1.524833897e-05 )
( 0.01342610735 0.003436947474 2.571467485e-05 )
( 0.0129115209 0.003366760211 2.13395615e-05 )
( 0.01402523089 0.004109974019 2.203392069e-05 )
( 0.01340598799 0.003648445942 2.427133586e-05 )
( 0.01497496665 0.004574460909 1.817652628e-05 )
( 0.009050234221 0.0004417530436 -4.99655107e-05 )
( 0.009010658599 0.0004514085595 -5.043455894e-05 )
( 0.008893977851 0.0004734242684 -5.120484275e-05 )
( 0.0089413682 0.0004637009988 -5.076275556e-05 )
( 0.008647093549 0.0005210743984 -5.288258399e-05 )
( 0.008698802441 0.0005102077266 -5.231997784e-05 )
( 0.008823349141 0.0004868113319 -5.16435648e-05 )
( 0.008773767389 0.0004968869616 -5.207324284e-05 )
( 0.009106488898 0.0003366508754 -5.01131326e-05 )
( 0.009061039425 0.0003449547221 -4.997374344e-05 )
( 0.008968006819 0.0003617931216 -4.987890861e-05 )
( 0.009011941031 0.0003528456728 -4.983252802e-05 )
( 0.008755153045 0.0003971821861 -5.056494047e-05 )
( 0.008811753243 0.0003879228025 -5.03037445e-05 )
( 0.008912184276 0.0003696553467 -4.98345762e-05 )
( 0.008865941316 0.0003791059717 -5.004570994e-05 )
( 0.008673664182 0.0002405731066 -4.702918159e-05 )
( 0.008588359691 0.0002521504648 -4.693824667e-05 )
( 0.008628615178 0.0002446026192 -4.696253018e-05 )
( 0.008403200656 0.000276879844 -4.701405851e-05 )
( 0.008448332548 0.000268719974 -4.690771311e-05 )
( 0.008540938608 0.0002563602757 -4.695771349e-05 )
( 0.008498357609 0.0002642692416 -4.695077951e-05 )
( 0.008929877542 0.0007568786386 -4.897871258e-05 )
( 0.008866459131 0.0007783479523 -4.95688073e-05 )
( 0.01013510674 0.001133674872 -3.038634713e-05 )
( 0.009346379898 0.0009439486312 -4.156225987e-05 )
( 0.00874717813 0.0008202357567 -5.024007623e-05 )
( 0.008791620843 0.0008056334918 -4.971407543e-05 )
( 0.01046772487 0.001278985292 -2.544363269e-05 )
( 0.01034491044 0.001325710677 -2.512732317e-05 )
( 0.008571877144 0.0005357022746 -5.33725688e-05 )
( 0.00851649791 0.0005469023599 -5.376820263e-05 )
( 0.008369943127 0.0005727419048 -5.464375499e-05 )
( 0.008435305208 0.0005613063695 -5.403887917e-05 )
( 0.007995069027 0.0006170337438 -5.632336615e-05 )
( 0.008012215607 0.0005985786556 -5.664823038e-05 )
( 0.008268057369 0.0005860661622 -5.525576853e-05 )
( 0.008175043389 0.0005937800161 -5.578721175e-05 )
( 0.01094942261 0.001706816023 -1.550489105e-05 )
( 0.01083702687 0.001752917538 -1.541333586e-05 )
( 0.01029112283 0.00151296251 -2.411166133e-05 )
( 0.0102622984 0.001409610268 -2.492066415e-05 )
( 0.01125274505 0.002154678572 -3.475254516e-06 )
( 0.01115272939 0.002233063569 -2.993683893e-06 )
( 0.01073714904 0.002055332297 -1.021642584e-05 )
( 0.01055183075 0.001903794357 -1.469449671e-05 )
( 0.01067255065 0.001841555 -1.526332562e-05 )
( 0.01163569372 0.002709355904 6.072249562e-06 )
( 0.01109240018 0.002489692299 -1.81103735e-06 )
( 0.01106120087 0.002355813747 -2.55946884e-06 )
( 0.01208643708 0.003276082687 1.339619848e-05 )
( 0.01144408807 0.002950929571 5.626394795e-06 )
( 0.0127527127 0.00360252359 1.852046262e-05 )
( 0.01435201988 0.004467288032 2.299696826e-05 )
( 0.01385572366 0.00444705924 2.387406494e-05 )
( 0.01335145347 0.003922965378 2.06812856e-05 )
( 0.01329423301 0.004136998206 2.025114554e-05 )
( 0.01439408772 0.004705573432 2.353310083e-05 )
( 0.008703031577 0.0004070645955 -5.108754704e-05 )
( 0.008648592979 0.0004174469505 -5.157416672e-05 )
( 0.008529022336 0.0004383411724 -5.262980631e-05 )
( 0.008590083569 0.0004276773834 -5.214012344e-05 )
( 0.008280878887 0.0004844345967 -5.478548337e-05 )
( 0.008344213478 0.0004722577578 -5.423583571e-05 )
( 0.008472188376 0.000449704472 -5.328972111e-05 )
( 0.0084084142 0.0004609627067 -5.37401429e-05 )
( 0.008350640535 0.0002815042099 -4.712281589e-05 )
( 0.00830311887 0.0002899344545 -4.738200369e-05 )
( 0.008197770454 0.0003035494592 -4.799579619e-05 )
( 0.008247983642 0.00029478324 -4.763227844e-05 )
( 0.007971839048 0.0003336314112 -4.987935245e-05 )
( 0.00802694913 0.0003237291239 -4.928193812e-05 )
( 0.008139973506 0.0003087443474 -4.834683932e-05 )
( 0.008087246679 0.0003180209314 -4.880907727e-05 )
( 0.007645512 0.0001855955925 -3.961843322e-05 )
( 0.007552486844 0.0001942538511 -4.005011215e-05 )
( 0.007599377073 0.0001900728821 -3.978533641e-05 )
( 0.007351331413 0.0002129250788 -4.152385372e-05 )
( 0.007403492462 0.0002083940635 -4.106377673e-05 )
( 0.007504068315 0.0001990474411 -4.036268001e-05 )
( 0.007454555482 0.000203428237 -4.07025218e-05 )
( 0.008007039316 0.000645991764 -5.631523527e-05 )
( 0.007995072752 0.0006783306017 -5.631000022e-05 )
( 0.009982343763 0.001189160277 -3.140711488e-05 )
( 0.009438253939 0.00103858579 -3.919583833e-05 )
( 0.009528151713 0.001010277192 -3.816094613e-05 )
( 0.008694281802 0.0008436911739 -5.04801028e-05 )
( 0.008498478681 0.0008397522033 -5.198881263e-05 )
( 0.008788177744 0.0009046973428 -4.839114627e-05 )
( 0.007897989824 0.0007155902567 -5.743876682e-05 )
( 0.007937627845 0.0006956477882 -5.686658551e-05 )
( 0.009819214232 0.001238337951 -3.300677054e-05 )
( 0.008212530985 0.0004961422528 -5.53307691e-05 )
( 0.008144503459 0.0005086190649 -5.570087887e-05 )
( 0.007993265986 0.0005330525455 -5.667375444e-05 )
( 0.008070351556 0.0005206770729 -5.612660607e-05 )
( 0.007383432239 0.0005498829996 -5.898632662e-05 )
( 0.007622575387 0.0005542326835 -5.83594483e-05 )
( 0.007900638506 0.0005438071676 -5.715830048e-05 )
( 0.007787552662 0.0005515678204 -5.771968063e-05 )
( 0.010257544 0.001574437367 -2.384056825e-05 )
( 0.009949293919 0.001602186239 -2.589926044e-05 )
( 0.009500367567 0.001356081455 -3.551715054e-05 )
( 0.009654444642 0.001286188373 -3.411844227e-05 )
( 0.0104819797 0.00210545212 -1.220781724e-05 )
( 0.01029333845 0.001970242942 -1.578025331e-05 )
( 0.009593365714 0.001743815141 -2.689529356e-05 )
( 0.009764675982 0.001666439697 -2.608553405e-05 )
( 0.01105740014 0.002578909276 -2.294129445e-06 )
( 0.01096092165 0.002645661822 -2.662538691e-06 )
( 0.010425644 0.002372459508 -1.062699357e-05 )
( 0.01039678976 0.002234482672 -1.09709672e-05 )
( 0.01194368396 0.00352861383 1.121519654e-05 )
( 0.01158183441 0.003165795468 8.430013622e-06 )
( 0.01147839427 0.003278176067 6.525509434e-06 )
( 0.0111892093 0.003099479945 4.17548199e-06 )
( 0.01071784087 0.002847443102 -4.427860858e-06 )
( 0.01083341893 0.002766777528 -3.481831072e-06 )
( 0.01254540682 0.003860038472 1.58143157e-05 )
( 0.01310265716 0.004444169346 2.022885383e-05 )
( 0.01377963275 0.004727899097 2.435899296e-05 )
( 0.01247854345 0.004137239885 1.552876711e-05 )
( 0.0144189503 0.005014631897 2.31508111e-05 )
( 0.007909530774 0.0003400292189 -5.046619117e-05 )
( 0.00785275735 0.000350784394 -5.112757208e-05 )
( 0.007728943601 0.0003693661129 -5.241891631e-05 )
( 0.007788318675 0.0003578712931 -5.175760816e-05 )
( 0.007461407222 0.0004098273639 -5.467779556e-05 )
( 0.007527994458 0.0003973907733 -5.410636368e-05 )
( 0.007661468349 0.0003771358461 -5.302843056e-05 )
( 0.007599035744 0.0003892787499 -5.361019794e-05 )
( 0.007297575939 0.0002180398005 -4.207863822e-05 )
( 0.007242739201 0.0002227274381 -4.271715443e-05 )
( 0.007128523663 0.0002330326824 -4.409113899e-05 )
( 0.007186230272 0.0002280634362 -4.33969326e-05 )
( 0.006883831229 0.0002563492453 -4.682919098e-05 )
( 0.00694688037 0.000250401732 -4.61200907e-05 )
( 0.007069293875 0.0002387497225 -4.477334005e-05 )
( 0.007008835673 0.0002441674587 -4.544438343e-05 )
( 0.006479363423 0.0001354371343 -3.104015923e-05 )
( 0.006381357554 0.0001416397718 -3.185889e-05 )
( 0.006431027781 0.0001385900541 -3.14597637e-05 )
( 0.006170144305 0.0001549093722 -3.446513074e-05 )
( 0.00622497825 0.0001515833283 -3.372739229e-05 )
( 0.006330564618 0.0001449419506 -3.247702625e-05 )
( 0.006278409623 0.0001481674844 -3.309006934e-05 )
( 0.007235218305 0.0005675696884 -5.911968765e-05 )
( 0.006960096769 0.0005569515051 -5.970075654e-05 )
( 0.009330270812 0.001067273319 -4.04155835e-05 )
( 0.00924113486 0.001087108976 -4.141272075e-05 )
( 0.008518253453 0.0009079131996 -5.256347504e-05 )
( 0.007843995467 0.0007341623423 -5.827220593e-05 )
( 0.00802454818 0.0008067546878 -5.745502131e-05 )
( 0.007739062421 0.0007457155152 -5.922783021e-05 )
( 0.00692736404 0.0005950347986 -6.115491851e-05 )
( 0.006938780658 0.0005739794578 -6.041105735e-05 )
( 0.009075867943 0.001140135457 -4.337913924e-05 )
( 0.009151817299 0.001115272869 -4.223161886e-05 )
( 0.007385447156 0.0004182758857 -5.52061756e-05 )
( 0.007314512506 0.0004310043296 -5.559470446e-05 )
( 0.007161999121 0.0004533643078 -5.658424925e-05 )
( 0.007235482335 0.0004400346952 -5.610591325e-05 )
( 0.006600136403 0.0004880586639 -5.884927668e-05 )
( 0.006801537238 0.0004750276566 -5.827602217e-05 )
( 0.007067577448 0.0004612242337 -5.714315921e-05 )
( 0.006959953345 0.0004713537637 -5.771379074e-05 )
( 0.009224929847 0.001390220714 -3.833996743e-05 )
( 0.009180190973 0.00148819224 -3.632876178e-05 )
( 0.009291501716 0.001458395738 -3.532917253e-05 )
( 0.008641493507 0.001228050329 -4.882783833e-05 )
( 0.008750476874 0.001205096487 -4.744471153e-05 )
( 0.008985454217 0.001163057284 -4.475541937e-05 )
( 0.008882311173 0.001179964631 -4.621997505e-05 )
( 0.01002638415 0.002026818227 -1.725906623e-05 )
( 0.009361138567 0.001804798609 -2.913995559e-05 )
( 0.00880881492 0.001626365352 -3.96756368e-05 )
( 0.008860404603 0.001592794899 -3.871291483e-05 )
( 0.009063503705 0.001517775818 -3.690933227e-05 )
( 0.008956095204 0.001549483743 -3.78500954e-05 )
( 0.01040402614 0.002455600537 -1.046915804e-05 )
( 0.01013355609 0.002507627709 -1.334258468e-05 )
( 0.00973016303 0.002217039466 -2.049078284e-05 )
( 0.00985968858 0.002105551073 -1.845785664e-05 )
( 0.0120676998 0.003757821862 1.235824129e-05 )
( 0.01170356199 0.003703074297 8.721359336e-06 )
( 0.01130514126 0.0034624408 3.699101171e-06 )
( 0.01141612791 0.003385006683 4.596914096e-06 )
( 0.01099955849 0.003216152778 1.122167305e-06 )
( 0.01046383474 0.002943670377 -7.16834893e-06 )
( 0.009767014533 0.00269570807 -1.995143248e-05 )
( 0.009969859384 0.002608169103 -1.582840559e-05 )
( 0.01199107245 0.003891298315 1.03714674e-05 )
( 0.01305657625 0.00474428013 1.910201718e-05 )
( 0.01263745688 0.004375369288 1.741515734e-05 )
( 0.01257583592 0.004521319177 1.416223131e-05 )
( 0.01367262937 0.005040565971 2.260452493e-05 )
( 0.01187564898 0.004095891491 9.059591321e-06 )
( 0.01196109131 0.004007966723 9.794730431e-06 )
( 0.01227988116 0.00434005633 1.412389793e-05 )
( 0.006820114329 0.0002633056138 -4.751421511e-05 )
( 0.006756126881 0.000270097371 -4.819412425e-05 )
( 0.006623655092 0.0002851793251 -4.952804738e-05 )
( 0.006690592505 0.0002777775517 -4.886727038e-05 )
( 0.006335342769 0.0003183875233 -5.18781344e-05 )
( 0.006411041599 0.0003102414485 -5.12692859e-05 )
( 0.006554627791 0.0002935599769 -5.011910616e-05 )
( 0.006483993959 0.0003015129478 -5.072392014e-05 )
( 0.00611398695 0.0001584205602 -3.528637535e-05 )
( 0.006056444254 0.00016185001 -3.61653947e-05 )
( 0.005937078036 0.0001692005753 -3.791890776e-05 )
( 0.005997460801 0.0001655269298 -3.705400013e-05 )
( 0.005681386217 0.000186322417 -4.099996295e-05 )
( 0.005747450516 0.0001817873563 -4.027056639e-05 )
( 0.005875295028 0.0001732198725 -3.873377864e-05 )
( 0.005812060088 0.0001772948017 -3.953939813e-05 )
( 0.005274527706 9.31095783e-05 -2.286352355e-05 )
( 0.005176412407 9.726191638e-05 -2.393665454e-05 )
( 0.005226035602 9.514507838e-05 -2.341304025e-05 )
( 0.004965959117 0.0001062278825 -2.680736543e-05 )
( 0.00502045732 0.0001039270282 -2.599048094e-05 )
( 0.005125699565 9.944920748e-05 -2.463089913e-05 )
( 0.005073699635 0.0001016586248 -2.526819117e-05 )
( 0.006202123594 0.0004793573753 -5.888683881e-05 )
( 0.005705970339 0.0004469232226 -5.898300151e-05 )
( 0.008392503485 0.0009322694386 -5.381788651e-05 )
( 0.008257982321 0.0009395621601 -5.500538828e-05 )
( 0.007668163627 0.0007989883306 -5.985267489e-05 )
( 0.006886041723 0.0006181666395 -6.215163739e-05 )
( 0.007341050543 0.0007267225301 -6.212628796e-05 )
( 0.006837013178 0.0006397559773 -6.295328058e-05 )
( 0.005804735702 0.0004835183499 -6.121460319e-05 )
( 0.005804362241 0.0004627177259 -6.021399167e-05 )
( 0.008112854324 0.0009887234773 -5.744572627e-05 )
( 0.008145013824 0.000966526859 -5.661712203e-05 )
( 0.006257254165 0.000327391841 -5.244648128e-05 )
( 0.006176677067 0.0003355701629 -5.303714352e-05 )
( 0.006031278986 0.0003558198223 -5.423681432e-05 )
( 0.006102079526 0.0003456440172 -5.358457929e-05 )
( 0.005538625177 0.0003961169568 -5.635344496e-05 )
( 0.005711996462 0.0003875639813 -5.596666961e-05 )
( 0.005950731225 0.0003669217112 -5.490567128e-05 )
( 0.005848519504 0.0003762976557 -5.549350317e-05 )
( 0.008538474329 0.001258797245 -4.913379598e-05 )
( 0.008500734344 0.001287749503 -4.983085091e-05 )
( 0.008657597005 0.001358543988 -4.625269867e-05 )
( 0.008380657993 0.001354902284 -5.066496669e-05 )
( 0.007561301813 0.001065875171 -6.339691026e-05 )
( 0.007745257579 0.001039298717 -6.198808114e-05 )
( 0.008033747785 0.001016892726 -5.866568245e-05 )
( 0.007945376448 0.001028645551 -5.982833318e-05 )
( 0.009387808852 0.001935352222 -2.649626731e-05 )
( 0.009468769655 0.001896262169 -2.557849621e-05 )
( 0.008846348152 0.001683859969 -3.856065086e-05 )
( 0.008772490546 0.001712184399 -3.900951197e-05 )
( 0.008950130083 0.001803979976 -3.541409023e-05 )
( 0.008108312264 0.001506358618 -5.234522541e-05 )
( 0.008094035089 0.001458412735 -5.272854833e-05 )
( 0.008200007491 0.001381776063 -5.198343206e-05 )
( 0.008234255947 0.001428032527 -5.142840382e-05 )
( 0.009486009367 0.002274521161 -2.479503382e-05 )
( 0.009428066202 0.002402065555 -2.432356996e-05 )
( 0.009539087303 0.0023628911 -2.254616265e-05 )
( 0.009089466184 0.002126036445 -3.200325591e-05 )
( 0.009083212353 0.002057525795 -3.148324686e-05 )
( 0.009290752932 0.001973309554 -2.749324813e-05 )
( 0.009188804775 0.002008311218 -2.907894122e-05 )
( 0.01116698328 0.003595637623 1.726239702e-06 )
( 0.0115457736 0.003844875377 5.572012924e-06 )
( 0.01053492352 0.003356195986 -7.477278814e-06 )
( 0.01082366798 0.003279016819 -2.339171033e-06 )
( 0.01022657286 0.003046676517 -1.133996011e-05 )
( 0.009859171696 0.002795637818 -1.744612928e-05 )
( 0.009755261242 0.002836653031 -1.937056368e-05 )
( 0.009242293425 0.002610929077 -3.016887058e-05 )
( 0.009386992082 0.002706563799 -2.731397763e-05 )
( 0.009310223162 0.002582830144 -2.854870945e-05 )
( 0.009339776821 0.002462010598 -2.660702739e-05 )
( 0.009348940104 0.002537068911 -2.716865492e-05 )
( 0.01323051751 0.004986707587 2.005062925e-05 )
( 0.01290436368 0.004961624742 1.573176633e-05 )
( 0.01248931047 0.004735764582 1.191563206e-05 )
( 0.01256163791 0.004644316621 1.306882768e-05 )
( 0.01214946341 0.004498293158 1.000337579e-05 )
( 0.01320136338 0.005137714557 1.641032941e-05 )
( 0.01177412365 0.00424665818 7.593489045e-06 )
( 0.01115215756 0.004018362612 -5.991104786e-07 )
( 0.01140136737 0.003922705539 3.702789854e-06 )
( 0.005615573842 0.000191482628 -4.171150067e-05 )
( 0.005549700931 0.0001968542638 -4.24136706e-05 )
( 0.005413380452 0.0002085676097 -4.380380778e-05 )
( 0.005482498091 0.0002026554866 -4.31207518e-05 )
( 0.005115186796 0.0002346154943 -4.639147664e-05 )
( 0.00519373687 0.0002280045883 -4.576845095e-05 )
( 0.005342348944 0.0002149153152 -4.443785656e-05 )
( 0.005269094836 0.0002213031985 -4.506128971e-05 )
( 0.004910160787 0.000108565444 -2.768953345e-05 )
( 0.004853080958 0.0001109307341 -2.86049617e-05 )
( 0.004734850489 0.0001159137391 -3.044131518e-05 )
( 0.004794660956 0.0001133725309 -2.950550515e-05 )
( 0.004481489304 0.0001278696 -3.3505592e-05 )
( 0.004547111224 0.0001246141474 -3.282000762e-05 )
( 0.00467371149 0.000118621203 -3.122870112e-05 )
( 0.004611065146 0.0001214895237 -3.209388524e-05 )
( 0.004105556291 6.008968194e-05 -1.595649155e-05 )
( 0.004013670143 6.276235945e-05 -1.69723171e-05 )
( 0.004060135223 6.141482299e-05 -1.644416625e-05 )
( 0.003816992277 6.849915371e-05 -1.959396286e-05 )
( 0.00386786391 6.700775702e-05 -1.885852362e-05 )
( 0.003966168035 6.414206291e-05 -1.757081918e-05 )
( 0.003917569295 6.555899745e-05 -1.820798025e-05 )
( 0.005452894606 0.0004293139791 -5.756751489e-05 )
( 0.005385858938 0.000415952818 -5.665197386e-05 )
( 0.004567028023 0.0003478903673 -5.478262756e-05 )
( 0.007522134576 0.000806937227 -6.118268357e-05 )
( 0.007341492455 0.0008197856368 -6.264184776e-05 )
( 0.007049007341 0.0007171860198 -6.375265366e-05 )
( 0.005776185542 0.0005055454676 -6.235085311e-05 )
( 0.006728942506 0.0006538230809 -6.464408216e-05 )
( 0.00574863283 0.000527307915 -6.338828825e-05 )
( 0.004634655081 0.0003826845787 -5.75357335e-05 )
( 0.004644091707 0.0003644230019 -5.631851673e-05 )
( 0.007175082341 0.0008559544221 -6.497555296e-05 )
( 0.007163819391 0.000824592018 -6.39985592e-05 )
( 0.005034353584 0.0002416393254 -4.710793291e-05 )
( 0.004950548522 0.0002480237163 -4.767623614e-05 )
( 0.004826285876 0.0002665588981 -4.911365249e-05 )
( 0.004881749395 0.0002563764865 -4.838370296e-05 )
( 0.004430111498 0.0003187515249 -5.120581045e-05 )
( 0.004572809208 0.0003045450721 -5.086815872e-05 )
( 0.004764547106 0.0002780047362 -4.986274507e-05 )
( 0.004683501087 0.0002905182773 -5.045148646e-05 )
( 0.00765087828 0.001114251558 -6.188508996e-05 )
( 0.008072667755 0.001269444823 -5.606045306e-05 )
( 0.007742227055 0.001175410929 -6.021256195e-05 )
( 0.007801324595 0.001264413702 -5.90988202e-05 )
( 0.006827391218 0.000962916296 -6.926010974e-05 )
( 0.006903547794 0.0009227781557 -6.82519385e-05 )
( 0.007148084696 0.0008820281946 -6.598645996e-05 )
( 0.00705429446 0.0009027617634 -6.685621338e-05 )
( 0.008614137769 0.001792430412 -4.130671368e-05 )
( 0.008110952564 0.001547093503 -5.085625162e-05 )
( 0.008430237882 0.001714194077 -4.491887739e-05 )
( 0.008085450158 0.001601955621 -4.994178016e-05 )
( 0.00763771683 0.001415050006 -5.909771426e-05 )
( 0.007795831189 0.001402482972 -5.764190064e-05 )
( 0.007720354479 0.001294477726 -5.919925752e-05 )
( 0.007756769657 0.001352837309 -5.82689172e-05 )
( 0.009032865055 0.002166578779 -3.343875142e-05 )
( 0.008948092349 0.0021894651 -3.468606519e-05 )
( 0.009060313925 0.002273904625 -3.204004679e-05 )
( 0.008818707429 0.002288413234 -3.678230496e-05 )
( 0.008450637572 0.002015693812 -4.396658915e-05 )
( 0.008330434561 0.001921604853 -4.527084457e-05 )
( 0.008520734496 0.001840618206 -4.324846668e-05 )
( 0.008478985168 0.00187750964 -4.332885874e-05 )
( 0.01033525821 0.003457967192 -1.131347835e-05 )
( 0.01084719505 0.003700227477 -3.696332669e-06 )
( 0.00997761637 0.003297455842 -1.745372356e-05 )
( 0.01000986435 0.003226672299 -1.583835547e-05 )
( 0.009980845265 0.003117718967 -1.658469228e-05 )
( 0.009647982195 0.002972623799 -2.301871064e-05 )
( 0.009651578031 0.002897456288 -2.196109563e-05 )
( 0.009163363837 0.002723452635 -3.211133662e-05 )
( 0.008998858742 0.002635394689 -3.515819481e-05 )
( 0.008661968634 0.002507255645 -3.987356467e-05 )
( 0.008760607801 0.002481581876 -3.815300079e-05 )
( 0.008757196367 0.002358315978 -3.806799941e-05 )
( 0.008763803169 0.002433942398 -3.827718683e-05 )
( 0.01241357531 0.004894371144 9.422476978e-06 )
( 0.01280775014 0.005127240904 1.144374437e-05 )
( 0.01181670651 0.004690656904 2.042547521e-06 )
( 0.01202861127 0.004582382739 7.028434084e-06 )
( 0.01149518136 0.004375074524 9.684695215e-07 )
( 0.01098702848 0.004138346296 -5.358640465e-06 )
( 0.01063481718 0.003983164206 -1.004936348e-05 )
( 0.01066163555 0.003904585727 -8.167357919e-06 )
( 0.0106304083 0.00378779415 -8.269162208e-06 )
( 0.004417001735 0.0001316141861 -3.419561472e-05 )
( 0.00435300637 0.0001356637222 -3.493026452e-05 )
( 0.004220240749 0.0001443939545 -3.64464795e-05 )
( 0.004287661519 0.0001399394096 -3.568843749e-05 )
( 0.003927340265 0.000163906574 -3.934492634e-05 )
( 0.004004735965 0.0001588463347 -3.863421443e-05 )
( 0.004150660709 0.0001490697323 -3.714738705e-05 )
( 0.004078807309 0.0001538474171 -3.789472612e-05 )
( 0.003765011439 7.001564518e-05 -2.03880918e-05 )
( 0.003711857134 7.155941421e-05 -2.120371755e-05 )
( 0.003601950128 7.479479245e-05 -2.292065437e-05 )
( 0.003657556139 7.31417822e-05 -2.213417974e-05 )
( 0.003366066376 8.273362619e-05 -2.566219337e-05 )
( 0.003427274525 8.054989303e-05 -2.505333032e-05 )
( 0.003545082873 7.656390517e-05 -2.366866102e-05 )
( 0.003486821428 7.845307118e-05 -2.438812226e-05 )
( 0.003039448755 3.629712955e-05 -1.068483016e-05 )
( 0.002959343605 3.78406985e-05 -1.145454553e-05 )
( 0.002999861492 3.70599555e-05 -1.106713171e-05 )
( 0.002788220998 4.126937711e-05 -1.363430056e-05 )
( 0.002832418308 4.03662707e-05 -1.304499347e-05 )