/*--------------------------------*- C++ -*----------------------------------*\
  =========                 |
  \\      /  F ield         | OpenFOAM: The Open Source CFD Toolbox
   \\    /   O peration     | Website:  https://openfoam.org
    \\  /    A nd           | Version:  8
     \\/     M anipulation  |
\*---------------------------------------------------------------------------*/






FoamFile
{
    version     2.0;
    format      ascii;
    class       volScalarField;
    location    "0";
    object      pDDES;
}
// * * * * * * * * * * * * * * * * * * * * * * * * * * * * * * * * * * * * * //

dimensions      [0 2 -2 0 0 0 0];


internalField   nonuniform List<scalar> 
11509
(
1.566674837e-05
1.735027763e-05
2.060873157e-05
1.480079027e-05
2.215192762e-05
1.863088619e-05
2.349468923e-05
2.282939749e-05
1.782234904e-05
1.034450179e-05
2.453370689e-05
2.383286119e-05
2.520248563e-05
2.045939073e-05
2.604129622e-05
2.509196747e-05
2.130579378e-05
2.188565668e-05
1.327124028e-05
6.701329312e-06
2.709640285e-05
2.704373946e-05
2.559228597e-05
2.637058788e-05
2.805654549e-05
2.900040272e-05
2.813512219e-05
2.399736695e-05
2.601368033e-05
1.655545384e-05
2.580717046e-05
2.748563929e-05
9.595029042e-06
3.936865141e-06
3.014592767e-05
2.821039561e-05
3.005017788e-05
2.8940638e-05
2.911529737e-05
3.098537854e-05
3.137668682e-05
3.04124078e-05
2.954902266e-05
2.95700338e-05
3.162682333e-05
2.060174847e-05
2.66542138e-05
2.906240115e-05
1.287950818e-05
3.185164678e-05
3.097762601e-05
3.018294592e-05
6.829576705e-06
3.241255763e-05
3.11104086e-05
3.308164014e-05
3.206825204e-05
3.220482904e-05
3.344272409e-05
3.347470192e-05
3.245359403e-05
3.235263284e-05
3.319196549e-05
3.547048618e-05
3.341427146e-05
3.758398088e-05
2.528779441e-05
1.684839845e-05
2.903060522e-05
3.442976595e-05
1.010745109e-05
3.572532296e-05
3.473290417e-05
3.426350668e-05
3.32100899e-05
3.454666876e-05
3.435898543e-05
3.565542283e-05
3.531166658e-05
3.45505614e-05
3.564653889e-05
3.532594928e-05
3.426405237e-05
3.553444185e-05
3.669656508e-05
3.860465949e-05
3.724746784e-05
3.903019024e-05
3.755162834e-05
4.256514876e-05
4.043596709e-05
4.065136091e-05
2.171970664e-05
3.229303911e-05
1.402554517e-05
3.319230746e-05
3.740509783e-05
3.898517753e-05
3.9473176e-05
3.810186172e-05
3.775208461e-05
3.67045468e-05
3.643804303e-05
3.684616968e-05
3.7984144e-05
3.807188841e-05
3.679736619e-05
3.758546882e-05
3.672814273e-05
3.563793871e-05
3.926401769e-05
4.036227983e-05
3.979593021e-05
4.298194108e-05
4.390284812e-05
4.180202086e-05
4.343207183e-05
4.17615156e-05
4.190729669e-05
4.457554678e-05
4.517381603e-05
4.464192534e-05
2.686495645e-05
1.866538514e-05
3.470046795e-05
3.646352343e-05
3.717268555e-05
4.127763168e-05
4.273620652e-05
4.330795127e-05
4.200092008e-05
4.071175499e-05
3.939769522e-05
3.787066453e-05
3.92376096e-05
4.003622598e-05
4.051720316e-05
3.878764619e-05
3.905459016e-05
3.772442142e-05
3.661200026e-05
4.21126424e-05
4.349021037e-05
4.703209925e-05
4.624323992e-05
4.796103167e-05
4.58085924e-05
4.82811156e-05
4.652780626e-05
4.650596384e-05
4.356022691e-05
4.429662658e-05
4.859756882e-05
4.951310621e-05
4.833057028e-05
3.363016731e-05
2.344590939e-05
3.780371117e-05
4.185878061e-05
4.233731306e-05
4.53312532e-05
4.693069059e-05
4.641518899e-05
4.494877066e-05
4.329100557e-05
4.190858454e-05
3.888664287e-05
4.13407106e-05
4.1594918e-05
4.270684076e-05
4.029550473e-05
4.009772965e-05
3.838056364e-05
3.725516945e-05
4.474767411e-05
4.620312029e-05
5.044671707e-05
5.031532783e-05
4.842802446e-05
5.184839756e-05
5.029804015e-05
5.109021004e-05
5.080697883e-05
5.075138324e-05
5.086206511e-05
4.692808216e-05
5.124227391e-05
5.290679837e-05
5.236582729e-05
2.776762267e-05
3.924597331e-05
3.705311974e-05
4.358927254e-05
4.363849803e-05
4.635594814e-05
4.663585059e-05
4.788520528e-05
4.802252806e-05
4.975520278e-05
4.907137918e-05
4.766060374e-05
4.560866e-05
4.413584611e-05
3.955808643e-05
4.296730549e-05
4.27072373e-05
4.43873505e-05
4.136966891e-05
4.078820712e-05
3.876630944e-05
3.763210407e-05
4.712197551e-05
4.865558731e-05
5.380418224e-05
5.279773177e-05
5.233519187e-05
5.453938866e-05
5.303090438e-05
5.473822966e-05
5.383598545e-05
5.425154086e-05
5.349535786e-05
5.371427687e-05
5.0601564e-05
5.434454215e-05
5.407727076e-05
5.571931615e-05
5.492015771e-05
5.195205449e-05
3.650451617e-05
4.59976327e-05
4.091461597e-05
4.666454333e-05
4.831220576e-05
5.053438872e-05
4.986088607e-05
5.240721657e-05
5.272691487e-05
5.076773232e-05
5.045397847e-05
5.148825585e-05
5.145135583e-05
5.012136899e-05
4.740776785e-05
4.589405944e-05
3.995383304e-05
4.412067938e-05
4.344764966e-05
4.560359957e-05
4.208200698e-05
4.119643199e-05
3.895689952e-05
3.78185905e-05
4.899406849e-05
5.05985372e-05
5.507894093e-05
5.651983156e-05
5.475748549e-05
5.655884161e-05
5.63220492e-05
5.559418423e-05
5.70969205e-05
5.644876728e-05
5.570652866e-05
5.638111179e-05
5.601239536e-05
5.72279605e-05
5.412723476e-05
5.659421367e-05
5.629222142e-05
5.751916615e-05
5.68368996e-05
5.422882532e-05
4.120541416e-05
4.302729576e-05
5.013288683e-05
4.944944521e-05
4.849980178e-05
4.799315866e-05
5.328517e-05
5.329461055e-05
5.613845133e-05
5.604250327e-05
5.693048661e-05
5.443164991e-05
5.267398228e-05
5.36093321e-05
5.335011156e-05
5.211402095e-05
4.871375495e-05
4.714661918e-05
4.015107697e-05
4.489049752e-05
4.388713933e-05
4.641111082e-05
4.250612619e-05
4.140287274e-05
3.902865501e-05
3.788663889e-05
5.034405694e-05
5.202672764e-05
5.708603567e-05
5.713924475e-05
5.89802039e-05
5.739285189e-05
5.757438339e-05
5.860998863e-05
5.837653589e-05
5.785474787e-05
5.887190491e-05
5.833217438e-05
5.878334923e-05
5.800610961e-05
5.769533891e-05
5.747639079e-05
5.894304195e-05
5.783474626e-05
6.01748543e-05
5.644182966e-05
5.83431538e-05
5.801752923e-05
5.881758989e-05
5.825705011e-05
5.606695777e-05
4.622889537e-05
5.073677312e-05
5.323526057e-05
5.55258739e-05
5.262190825e-05
5.066725134e-05
5.341960787e-05
5.579728895e-05
5.841411257e-05
5.815194527e-05
5.832019087e-05
5.986143879e-05
5.876558134e-05
5.446334399e-05
5.534333468e-05
5.474658974e-05
5.358854833e-05
4.960015212e-05
4.799726594e-05
4.022595749e-05
4.535162952e-05
4.411223563e-05
4.689987327e-05
4.271954822e-05
4.148144581e-05
3.904373079e-05
3.790198389e-05
5.12700426e-05
5.301757847e-05
5.913901623e-05
5.980257993e-05
6.058299914e-05
6.032425154e-05
5.972395229e-05
6.020868022e-05
5.998381312e-05
5.954435255e-05
6.018729255e-05
6.107454101e-05
6.13193115e-05
6.087992369e-05
6.071055395e-05
5.972867075e-05
5.975530803e-05
6.210101128e-05
5.985876487e-05
5.96659047e-05
6.227588165e-05
5.963748117e-05
5.925750156e-05
5.969314225e-05
5.924003926e-05
5.742741632e-05
5.354834138e-05
5.456247891e-05
5.623654579e-05
5.403490286e-05
5.697131201e-05
6.038069841e-05
5.770787902e-05
5.786165639e-05
5.960794442e-05
6.085229325e-05
6.112123083e-05
6.021798981e-05
6.048499199e-05
6.038453284e-05
6.014627434e-05
6.240596122e-05
6.211143045e-05
6.093315096e-05
5.574835086e-05
5.663567572e-05
5.571320798e-05
5.46343108e-05
5.014864291e-05
4.85191631e-05
4.024319787e-05
4.558962246e-05
4.420222103e-05
4.715693285e-05
4.280556459e-05
4.150077802e-05
3.904577534e-05
3.790104165e-05
5.185049667e-05
5.365206744e-05
6.099466555e-05
6.135095464e-05
6.172880239e-05
6.195210153e-05
6.169742119e-05
6.140151527e-05
6.119675527e-05
6.082034088e-05
6.108228263e-05
6.303965347e-05
6.332695193e-05
6.278927322e-05
6.258526264e-05
6.219922216e-05
6.229907012e-05
6.379104161e-05
6.196652976e-05
6.207150727e-05
6.342057168e-05
6.04968991e-05
6.008618948e-05
6.024171671e-05
5.990656427e-05
5.838293146e-05
5.723046706e-05
5.916367809e-05
5.70616503e-05
5.93428922e-05
6.002802547e-05
6.123235653e-05
6.275727355e-05
6.142150232e-05
6.190719432e-05
6.220386422e-05
6.347366434e-05
6.370115443e-05
6.287414726e-05
6.313974154e-05
6.24871318e-05
6.224552635e-05
6.434053648e-05
6.283331459e-05
6.407558976e-05
6.315334758e-05
5.662576586e-05
5.74948026e-05
5.633752153e-05
5.532846262e-05
5.0448416e-05
4.880150664e-05
4.024385998e-05
4.568978329e-05
4.422613347e-05
4.727088162e-05
4.282472946e-05
4.150129826e-05
5.217337457e-05
5.401973249e-05
6.212992594e-05
6.250371371e-05
6.250178558e-05
6.316437793e-05
6.289880548e-05
6.220120849e-05
6.202343502e-05
6.169363041e-05
6.163145008e-05
6.418692647e-05
6.450512592e-05
6.39024438e-05
6.368189497e-05
6.435423711e-05
6.417230179e-05
6.494967965e-05
6.45000182e-05
6.43022795e-05
6.417661643e-05
6.102589759e-05
6.058903091e-05
6.054691767e-05
6.030683289e-05
5.901101031e-05
6.159464101e-05
6.22143707e-05
6.438027049e-05
6.164450315e-05
6.285163545e-05
6.367651076e-05
6.411127106e-05
6.456489064e-05
6.391240458e-05
6.392438081e-05
6.358416431e-05
6.38493002e-05
6.605734234e-05
6.628486153e-05
6.545214274e-05
6.576383021e-05
6.50746515e-05
6.478567229e-05
6.68795401e-05
6.474060501e-05
6.658878556e-05
6.504169141e-05
5.717575186e-05
5.80607084e-05
5.669860548e-05
5.574813622e-05
5.058941315e-05
4.893069126e-05
4.57195747e-05
4.423191785e-05
4.730710498e-05
4.282785085e-05
5.233044067e-05
5.421036258e-05
6.286899588e-05
6.328499148e-05
6.296679931e-05
6.398975529e-05
6.372301868e-05
6.269275036e-05
6.254024629e-05
6.224063691e-05
6.193695299e-05
6.493820547e-05
6.529749953e-05
6.462285091e-05
6.43883177e-05
6.543769268e-05
6.527197547e-05
6.573321298e-05
6.584996299e-05
6.564100477e-05
6.464617036e-05
6.131390546e-05
6.085751374e-05
6.069403753e-05
6.052464232e-05
5.939607217e-05
6.649350689e-05
6.542625488e-05
6.74710318e-05
6.423715968e-05
6.686857523e-05
6.667740672e-05
6.719231169e-05
6.75031115e-05
6.55185795e-05
6.6202163e-05
6.631964789e-05
6.65146581e-05
6.575796579e-05
6.63666724e-05
6.750218745e-05
6.770579057e-05
6.687467976e-05
6.722642138e-05
6.647910777e-05
6.614965241e-05
6.824692537e-05
6.724958803e-05
6.796426169e-05
6.762023258e-05
5.747958494e-05
5.837836943e-05
5.688161764e-05
5.5979428e-05
5.064457218e-05
4.898140105e-05
4.572682155e-05
4.732357775e-05
5.240045721e-05
5.430695455e-05
6.332372868e-05
6.376697274e-05
6.32154115e-05
6.451788067e-05
6.424282037e-05
6.29614733e-05
6.283479161e-05
6.25554967e-05
6.208616105e-05
6.540063623e-05
6.579194451e-05
6.506338832e-05
6.482009485e-05
6.614150334e-05
6.601082714e-05
6.623093213e-05
6.654190656e-05
6.632970326e-05
6.490292435e-05
6.144491635e-05
6.097467121e-05
6.075355122e-05
6.065268826e-05
5.95978745e-05
6.828670303e-05
6.76756099e-05
7.000996993e-05
6.94784394e-05
6.668381684e-05
6.687284622e-05
6.969529204e-05
6.891963858e-05
6.92599715e-05
6.961952749e-05
6.803279393e-05
6.855101674e-05
6.836441025e-05
6.850928912e-05
6.803008e-05
6.861492875e-05
6.826220488e-05
6.843813753e-05
6.762916018e-05
6.800462143e-05
6.719920202e-05
6.685119297e-05
6.894712715e-05
6.860735448e-05
6.867902266e-05
6.899241998e-05
5.762162618e-05
5.853119001e-05
5.696004882e-05
5.610651351e-05
5.067134407e-05
4.899022315e-05
5.243507621e-05
5.437181244e-05
6.357100938e-05
6.403954467e-05
6.332690828e-05
6.482689787e-05
6.454571121e-05
6.30852519e-05
6.298305379e-05
6.271890743e-05
6.215098983e-05
6.565336662e-05
6.607024989e-05
6.530140672e-05
6.505112833e-05
6.65826592e-05
6.648366252e-05
6.651954754e-05
6.696900527e-05
6.675318582e-05
6.502560427e-05
6.149422552e-05
6.100856626e-05
6.081305764e-05
6.063569163e-05
5.970198981e-05
7.082392403e-05
7.036926399e-05
7.226764865e-05
7.151950558e-05
6.92448084e-05
6.955621939e-05
7.265032764e-05
7.014889707e-05
7.049003761e-05
7.082674711e-05
7.004813233e-05
7.051106513e-05
7.070111315e-05
7.125564298e-05
6.942938489e-05
6.979839964e-05
6.874190876e-05
6.889009819e-05
6.810200284e-05
6.85033956e-05
6.764983846e-05
6.728481094e-05
6.938006845e-05
6.930842937e-05
6.911365199e-05
6.970104732e-05
5.767380208e-05
5.860099554e-05
5.700379916e-05
5.608995707e-05
6.368675531e-05
6.417719851e-05
6.336250226e-05
6.498987932e-05
6.470653898e-05
6.312839105e-05
6.304968701e-05
6.280372327e-05
6.218712224e-05
6.577322347e-05
6.621022476e-05
6.541053153e-05
6.515282439e-05
6.682881212e-05
6.67587592e-05
6.667032721e-05
6.720046076e-05
6.698294601e-05
6.507096987e-05
6.151542038e-05
6.101797044e-05
5.976587272e-05
7.367401849e-05
7.316730625e-05
7.474218728e-05
7.421856571e-05
7.183674461e-05
7.226771413e-05
7.421290502e-05
7.094984176e-05
7.130816084e-05
7.162820839e-05
7.122747775e-05
7.166823343e-05
7.218014071e-05
7.270559581e-05
7.016585005e-05
7.05946004e-05
6.90191082e-05
6.914103142e-05
6.837191904e-05
6.87980355e-05
6.790113548e-05
6.752207264e-05
6.961570762e-05
6.97422438e-05
6.934940029e-05
7.014397124e-05
5.769739437e-05
5.86326023e-05
6.373402721e-05
6.424318417e-05
6.337084051e-05
6.507074431e-05
6.479112199e-05
6.314706843e-05
6.306855357e-05
6.281172682e-05
6.582486822e-05
6.627762923e-05
6.544987264e-05
6.51870505e-05
6.694771582e-05
6.690266309e-05
6.674927135e-05
6.730786117e-05
6.708635192e-05
6.510110688e-05
7.518367784e-05
7.471316349e-05
7.620648103e-05
7.569432637e-05
7.326253399e-05
7.37551527e-05
7.505153917e-05
7.148255827e-05
7.178384112e-05
7.212267519e-05
7.201547851e-05
7.244335575e-05
7.294099487e-05
7.345470658e-05
7.063002704e-05
7.107130659e-05
6.916135317e-05
6.926048809e-05
6.850976933e-05
6.895644037e-05
6.80245721e-05
6.7633242e-05
6.972461415e-05
6.997900346e-05
6.945692439e-05
7.039003685e-05
6.375400699e-05
6.427849439e-05
6.508629303e-05
6.481680612e-05
6.585091614e-05
6.631761789e-05
6.547128578e-05
6.520035095e-05
6.699563528e-05
6.697575736e-05
6.677541387e-05
6.734936323e-05
6.712522008e-05
7.596478827e-05
7.551483577e-05
7.696646935e-05
7.646049926e-05
7.402056508e-05
7.455103332e-05
7.559592632e-05
7.181663386e-05
7.210638432e-05
7.239076513e-05
7.249984628e-05
7.292168448e-05
7.341171295e-05
7.392324915e-05
7.089106657e-05
7.140916568e-05
6.922993634e-05
6.930829841e-05
6.857972767e-05
6.90417437e-05
6.808188482e-05
6.768031017e-05
6.976718578e-05
7.008994726e-05
6.94977789e-05
7.050946442e-05
6.702853716e-05
6.699650112e-05
6.737196236e-05
6.713908806e-05
7.645353617e-05
7.602234837e-05
7.743645983e-05
7.693476073e-05
7.450628618e-05
7.507663395e-05
7.591146277e-05
7.202540291e-05
7.224446017e-05
7.251431089e-05
7.275981625e-05
7.318117423e-05
7.366894715e-05
7.418348832e-05
7.102297968e-05
7.156645734e-05
6.925771595e-05
6.933645636e-05
6.861858856e-05
6.90654997e-05
6.811514322e-05
6.770149048e-05
6.97903015e-05
7.013567665e-05
6.951276737e-05
7.056469622e-05
7.671988715e-05
7.630582695e-05
7.769169315e-05
7.719347195e-05
7.477494364e-05
7.538225327e-05
7.607995212e-05
7.211422053e-05
7.230327901e-05
7.256453682e-05
7.288053166e-05
7.330223161e-05
7.379044837e-05
7.431046106e-05
7.108721911e-05
7.16491777e-05
7.015546726e-05
7.059523341e-05
7.684693264e-05
7.644618745e-05
7.781606109e-05
7.731374353e-05
7.490862481e-05
7.553990145e-05
7.616751827e-05
7.213209028e-05
7.234197983e-05
7.258609548e-05
7.292890223e-05
7.335242117e-05
7.384319179e-05
7.436817396e-05
7.112097228e-05
7.169025776e-05
7.689736231e-05
7.650596672e-05
7.786844799e-05
7.735993859e-05
7.497265324e-05
7.561045641e-05
7.618046948e-05
7.294904208e-05
7.337721763e-05
7.386450307e-05
7.439879118e-05
7.69145845e-05
7.654374349e-05
7.788998482e-05
7.737744454e-05
7.499568892e-05
7.56438094e-05
2.784599565e-05
2.16731205e-05
3.336336886e-05
2.369822323e-05
1.343842814e-05
4.557066495e-05
4.572339822e-05
2.970108108e-05
1.351772335e-05
3.569547971e-06
5.420551679e-05
5.552301081e-05
4.771900058e-05
5.054982466e-05
5.432193575e-05
5.485894508e-05
4.954081305e-05
1.619750765e-05
3.766273585e-05
3.050903251e-05
2.704110102e-06
-4.684212854e-06
6.375522935e-05
6.271181337e-05
6.356341328e-05
5.399373185e-05
6.136520096e-05
4.542182069e-06
2.336675607e-05
4.299698048e-05
3.377340909e-05
-6.919944099e-06
-1.101838643e-05
6.634418969e-05
7.075483154e-05
6.596437743e-05
7.206115697e-05
7.109468424e-05
6.715999189e-05
7.040138007e-05
7.080026262e-05
7.002374332e-05
5.540056736e-05
6.159831537e-05
8.616567357e-06
-7.335068858e-06
2.250194666e-05
2.957588003e-05
5.028649321e-05
3.904925688e-05
-1.461646752e-05
-1.630247789e-05
7.776219718e-05
7.696390821e-05
7.747670315e-05
7.731271035e-05
7.77247551e-05
7.299381105e-05
7.451920828e-05
7.753567479e-05
5.966967728e-05
6.774417125e-05
1.199529379e-05
-5.285248335e-06
-1.775009878e-05
2.590307486e-05
3.68647452e-05
5.891460751e-05
5.424393021e-05
5.046955994e-05
-2.088483052e-05
-2.162367673e-05
8.283995703e-05
8.290723054e-05
8.049522148e-05
8.27502372e-05
8.13277511e-05
8.200213051e-05
7.783177716e-05
8.418229845e-05
6.697588833e-05
7.356362039e-05
-6.560783731e-06
1.442905159e-05
3.166880788e-06
-1.882430479e-05
-2.560839675e-05
2.937899626e-05
4.245233868e-05
3.702311369e-05
6.579345063e-05
5.924935249e-05
5.170980876e-05
5.787299597e-05
-2.643650078e-05
-2.513409345e-05
8.598767454e-05
8.613632235e-05
8.723571955e-05
8.478012751e-05
8.623076428e-05
8.56177794e-05
8.537212852e-05
8.031514153e-05
8.878993685e-05
7.147419819e-05
7.611169713e-05
-2.298706386e-05
-1.442973826e-05
1.743642679e-05
1.389568752e-06
-2.959212725e-05
-3.206793917e-05
2.691192276e-05
3.187081893e-05
3.838734119e-05
4.56690359e-05
6.998349272e-05
6.532828411e-05
5.339890049e-05
6.084996858e-05
-3.059432493e-05
-2.755475907e-05
8.836106281e-05
8.989395428e-05
8.995406097e-05
9.044877515e-05
8.687991794e-05
8.753158909e-05
8.943068678e-05
8.889559831e-05
8.806664118e-05
8.441354294e-05
8.288777462e-05
9.182839131e-05
9.193600272e-05
7.531492156e-05
8.038619126e-05
-3.250693044e-05
-3.581984492e-05
-2.931947893e-05
-1.766701826e-05
1.917930422e-05
2.782702541e-05
1.148286538e-05
-9.180334928e-07
-3.794613804e-05
-3.618701157e-05
4.089805952e-05
3.448763891e-05
4.864202856e-05
7.233648648e-05
6.756654329e-05
5.644965859e-05
6.318735541e-05
-3.256120908e-05
-2.852637954e-05
9.082032193e-05
9.137898451e-05
9.351559856e-05
9.308804874e-05
9.405745368e-05
9.079252777e-05
9.189591947e-05
9.370825137e-05
9.266760026e-05
9.168190445e-05
8.801059448e-05
8.672886179e-05
9.477833373e-05
9.473593673e-05
7.860000187e-05
7.939235365e-05
8.46507246e-05
-4.79740047e-05
-4.526874909e-05
-4.955181794e-05
-3.627893602e-05
-2.272620077e-05
2.922786007e-05
2.015159407e-05
1.032337514e-05
-9.097626389e-06
-1.051052095e-06
-4.113281102e-05
-3.990173354e-05
4.284481838e-05
3.604903759e-05
5.158557542e-05
7.427200762e-05
7.620952965e-05
7.11944158e-05
5.786328984e-05
6.842473522e-05
6.614983431e-05
-3.277795622e-05
-3.112155537e-05
9.404541925e-05
9.450425569e-05
9.723252151e-05
9.658013005e-05
9.712101019e-05
9.478019638e-05
9.549871902e-05
9.606379172e-05
9.503360343e-05
9.398830298e-05
9.095722635e-05
8.961830463e-05
9.861229773e-05
9.85293882e-05
8.164547762e-05
8.341144712e-05
8.789890853e-05
-5.780255015e-05
-5.805236651e-05
-6.371422933e-05
-6.345619477e-05
-5.54340113e-05
-6.509161904e-05
-4.66184938e-05
-1.266258732e-05
-2.665273496e-05
-3.36896519e-05
2.957177094e-05
1.866237108e-05
8.961330423e-06
-2.987427479e-06
-4.141278623e-05
4.433345384e-05
3.687358185e-05
5.491786578e-05
7.736046973e-05
7.982851821e-05
7.489193376e-05
6.256694905e-05
5.965026139e-05
7.198170351e-05
6.91030873e-05
9.79192846e-05
9.829012561e-05
9.952612891e-05
9.838247934e-05
9.893537936e-05
9.701352974e-05
9.7758435e-05
9.732843318e-05
9.632321598e-05
9.525696805e-05
9.278748621e-05
9.14433258e-05
0.0001007693136
0.0001006336242
8.431075548e-05
8.606939809e-05
8.982928557e-05
-7.610394823e-05
-6.916219718e-05
-7.312133675e-05
-7.713236118e-05
-7.217518578e-05
-5.3829026e-05
-7.635866496e-05
-5.893361958e-05
-5.427280848e-05
-3.87891123e-05
-1.652642095e-05
-3.057784852e-05
3.195838508e-05
2.472576671e-05
1.936505032e-05
6.004569968e-06
-7.613592061e-06
4.668043402e-05
4.998457734e-05
4.203866411e-05
3.818359983e-05
5.827764835e-05
8.037018415e-05
8.243671618e-05
7.771360833e-05
6.599303742e-05
6.253048923e-05
7.476194151e-05
7.180603279e-05
0.0001000452976
0.0001003921643
0.0001007392493
9.962180775e-05
0.0001001877827
9.82314159e-05
9.897910058e-05
9.81461053e-05
9.716289787e-05
9.609141125e-05
9.403892182e-05
9.268867143e-05
0.0001019300762
0.0001017790637
8.62895904e-05
8.805176913e-05
9.115580906e-05
-8.791025903e-05
-8.82667664e-05
-7.837286103e-05
-6.580752233e-05
-8.085610898e-05
-8.407234418e-05
-9.275315824e-05
-8.384808461e-05
-6.671238225e-05
-8.278626774e-05
-8.777459152e-05
-4.576624633e-05
-6.120048783e-05
-2.245415271e-05
-3.844622915e-05
3.500768435e-05
2.82739602e-05
2.156320079e-05
1.148695537e-05
5.657248948e-06
-8.869261364e-06
-2.737523801e-06
4.982547398e-05
5.38740569e-05
4.560752132e-05
4.097022975e-05
6.110647519e-05
8.232206164e-05
8.440746024e-05
7.976561028e-05
6.862997543e-05
6.516986468e-05
7.684846059e-05
7.386160723e-05
0.0001012117937
0.0001015300149
0.0001015321905
0.0001004292062
0.0001010019769
9.900861187e-05
9.97690222e-05
9.861511353e-05
9.765754658e-05
9.657464398e-05
9.485660121e-05
9.349659376e-05
0.0001026739119
0.0001025174133
8.770823479e-05
8.946000889e-05
9.201854118e-05
-9.535145364e-05
-9.631694411e-05
-7.607639418e-05
-8.669501403e-05
-8.482063276e-05
-9.248261631e-05
-9.10702438e-05
-0.0001037134207
-0.0001005513695
-8.988252375e-05
-8.196359704e-05
-8.730661648e-05
-9.636137838e-05
-5.57888925e-05
-7.287308836e-05
-1.795397475e-05
-2.483839489e-05
-4.266017277e-05
-3.497931903e-05
3.776648373e-05
3.097640365e-05
2.394009789e-05
1.442757002e-05
7.117317637e-06
-7.954474313e-06
-4.089763479e-07
5.269121903e-05
5.681887706e-05
4.839420217e-05
4.363651533e-05
6.312972255e-05
8.369303396e-05
8.580062422e-05
8.120085113e-05
7.060470671e-05
6.707923603e-05
7.836022269e-05
7.534446195e-05
0.0001019637275
0.0001022832294
0.0001019900519
0.0001008905674
0.000101471669
9.945237252e-05
0.0001002159624
9.886176849e-05
9.791873163e-05
9.683179087e-05
9.533282719e-05
9.395768575e-05
0.0001030956337
0.0001029399864
8.864320989e-05
9.038439748e-05
9.252016025e-05
-0.0001045654863
-0.0001000463235
-0.0001094970576
-8.774289745e-05
-9.716480417e-05
-9.45455613e-05
-0.0001027370963
-0.0001098892244
-0.0001052728112
-9.674431203e-05
-9.158182365e-05
-9.57042721e-05
-0.0001043762168
-6.173863221e-05
-5.370022336e-05
-8.088243339e-05
-7.277169061e-05
-1.606368096e-05
-2.473118002e-05
-4.418444223e-05
-3.422582813e-05
3.978615132e-05
3.297192234e-05
2.570844299e-05
1.649259684e-05
8.729474757e-06
-6.671686151e-06
1.051927256e-06
5.486147347e-05
5.89763149e-05
5.04866257e-05
4.563132097e-05
6.448323984e-05
8.459356468e-05
8.672390686e-05
8.216495189e-05
7.201075641e-05
6.839032721e-05
7.937807823e-05
7.634796202e-05
0.000102399521
0.0001027125472
0.0001022239594
0.0001011305576
0.0001017150062
9.967962978e-05
0.0001004531878
9.898914141e-05
9.805551963e-05
9.697975474e-05
9.558474994e-05
9.41928447e-05
0.0001033130029
0.0001031558641
8.920203254e-05
9.092425171e-05
9.276845958e-05
-0.0001119088047
-0.0001097314962
-0.0001145268179
-0.0001170662435
-0.0001132237885
-9.99200056e-05
-9.216517356e-05
-0.0001117035717
-0.0001060197246
-0.0001132515681
-0.0001146558207
-0.0001089841971
-0.0001030286221
-9.923271136e-05
-0.0001091923914
-0.0001109255245
-6.531161489e-05
-5.47939635e-05
-8.600294677e-05
-7.575297786e-05
-1.489976785e-05
-2.400837911e-05
-4.509938299e-05
-3.406269389e-05
4.122130485e-05
3.440029832e-05
2.692534326e-05
1.785543645e-05
9.656212569e-06
-5.894977221e-06
1.800476184e-06
5.641465759e-05
6.047024362e-05
5.198103463e-05
4.704145249e-05
6.531327381e-05
8.512716158e-05
8.727075328e-05
8.274093852e-05
7.294935494e-05
6.920759188e-05
8.000779053e-05
7.697194087e-05
0.0001026265018
0.0001029342602
0.000102343809
0.0001012587163
0.0001018386611
9.98180185e-05
0.0001005800514
9.907053027e-05
9.812589269e-05
9.705117554e-05
9.572831914e-05
9.432594379e-05
0.0001034195593
0.0001032661385
8.949239418e-05
9.120458708e-05
9.291163587e-05
-0.0001180956169
-0.0001169856405
-0.0001213994183
-0.000120308956
-0.0001237538236
-0.0001014178342
-0.00010839272
-9.630419663e-05
-0.0001210359478
-0.0001174244462
-0.0001177320737
-0.000116489573
-0.0001157914667
-0.0001142039691
-6.863649469e-05
-5.674311979e-05
-9.077489813e-05
-8.000367961e-05
-1.422409423e-05
-2.358861821e-05
-4.621301923e-05
-3.424693568e-05
4.2194446e-05
3.53955038e-05
2.773896449e-05
1.865096783e-05
9.956535905e-06
-5.547848559e-06
1.995857474e-06
5.743261863e-05
6.143690553e-05
5.298955148e-05
4.799324233e-05
6.575798034e-05
8.540738054e-05
8.756877651e-05
8.305460506e-05
7.351110253e-05
6.966487126e-05
8.037263615e-05
7.733155508e-05
0.0001027312974
0.0001030494968
0.0001023885416
0.0001013193178
0.0001019025949
9.989627142e-05
0.0001006612729
9.580137703e-05
9.440513531e-05
0.0001034855668
0.0001033249428
8.969038754e-05
9.136383596e-05
9.29876478e-05
-0.0001207024325
-0.0001212172356
-0.0001233506191
-0.0001273136877
-0.0001260264253
-0.0001273291418
-0.0001272879017
-0.0001060974755
-0.0001153122794
-0.000101229627
-0.0001301950979
-0.0001248933841
-0.000124231854
-0.0001173134151
-0.0001195708683
-7.259083213e-05
-5.923841672e-05
-9.594071889e-05
-8.503066783e-05
-1.385433643e-05
-2.338546619e-05
-4.739984797e-05
-3.452361125e-05
4.28202984e-05
3.604595986e-05
2.826350465e-05
1.904232158e-05
9.794755897e-06
-5.468318705e-06
1.83469308e-06
5.805314868e-05
6.199142081e-05
5.360850264e-05
4.857181557e-05
6.596807361e-05
8.558008994e-05
8.774891467e-05
8.325432282e-05
7.384486526e-05
6.989344547e-05
8.060883556e-05
7.759503933e-05
0.0001027870094
0.0001030985295
8.979768609e-05
9.148124809e-05
-0.000121924626
-0.0001258371776
-0.000124984741
-0.0001284081809
-0.0001304258767
-0.0001305330807
-0.0001323939068
-0.0001359060261
-0.0001115615378
-0.0001216610399
-0.0001062588417
-0.0001395220897
-0.0001324041805
-0.0001317356509
-0.0001232162031
-7.705726603e-05
-6.191070861e-05
-0.0001010791675
-9.048396169e-05
-1.367255572e-05
-2.327456059e-05
-4.841830741e-05
-3.475181438e-05
4.321537563e-05
3.650384315e-05
2.86533741e-05
1.916638394e-05
9.373591638e-06
-5.524239896e-06
1.499115911e-06
5.840662925e-05
6.230392319e-05
5.397588029e-05
4.892571087e-05
6.609472621e-05
8.56903207e-05
8.787023398e-05
8.336624887e-05
7.408379315e-05
7.005632506e-05
8.076070662e-05
7.776425628e-05
-0.0001257422991
-0.0001246265601
-0.0001304608595
-0.0001301297452
-0.0001318048744
-0.00013359281
-0.0001356669964
-0.0001397287415
-0.0001445756207
-0.0001168019517
-0.0001278912969
-0.0001108174329
-0.0001489826827
-0.0001413294376
-0.0001395488362
-0.0001258132106
-0.000125011109
-8.170277579e-05
-6.447402848e-05
-0.0001057751724
-9.600174963e-05
-1.359335965e-05
-2.319082523e-05
-4.913672819e-05
-3.486710193e-05
4.354849443e-05
3.693434701e-05
2.911614865e-05
1.922762749e-05
8.930613149e-06
-5.565707852e-06
1.193275807e-06
5.865877029e-05
6.250359002e-05
5.424175833e-05
4.918260674e-05
6.624385423e-05
7.424301293e-05
7.020235353e-05
-0.0001296241098
-0.000127954132
-0.0001325495832
-0.0001324125333
-0.0001354146516
-0.0001382258342
-0.0001424103975
-0.0001477742189
-0.0001535231713
-0.0001214101576
-0.000133623631
-0.0001145781353
-0.0001587889856
-0.0001509003196
-0.0001471963333
-0.0001281988079
-0.0001269410859
-8.608396456e-05
-6.667502021e-05
-0.0001096269116
-0.0001010397609
-1.349525064e-05
-2.303434121e-05
-4.943292879e-05
-3.478163489e-05
4.377058576e-05
3.726928844e-05
2.955062155e-05
1.950949445e-05
8.689716196e-06
-5.45945386e-06
1.068806341e-06
5.8820704e-05
6.263185787e-05
5.440471068e-05
4.938409256e-05
-0.0001319211442
-0.0001303533936
-0.000136746341
-0.0001372444676
-0.0001411480771
-0.0001443561778
-0.0001498867641
-0.0001559162629
-0.0001622433192
-0.0001250957866
-0.0001384204224
-0.0001173046985
-0.0001686539617
-0.0001608552411
-0.0001542285609
-0.000130703309
-0.0001295726688
-8.960119158e-05
-6.820861745e-05
-0.000112285139
-0.0001049959828
-1.324515688e-05
-2.267217315e-05
-4.911945143e-05
-3.436212864e-05
1.968484867e-05
9.073230103e-06
-5.342467375e-06
1.127363817e-06
-0.0001356878347
-0.0001338206494
-0.0001421493944
-0.0001439635525
-0.0001456590107
-0.000145700702
-0.0001513693569
-0.0001573550398
-0.0001634898217
-0.0001701052679
-0.0001276400144
-0.0001419070759
-0.0001188988826
-0.0001775383425
-0.0001708778727
-0.0001600918622
-0.0001327336795
-0.0001323081815
-9.176668391e-05
-6.862542068e-05
-0.0001137314684
-0.0001075845867
-1.298035932e-05
-2.233068699e-05
-4.856561281e-05
-3.38874961e-05
-0.0001396018051
-0.0001382691553
-0.0001461213251
-0.0001494590833
-0.0001514753676
-0.0001520121004
-0.0001585269056
-0.0001642927964
-0.0001699936256
-0.0001767205686
-0.0001289809006
-0.0001438926993
-0.000119506607
-0.0001846388914
-0.0001795859134
-0.000164228084
-0.0001347227226
-0.000134781294
-9.196542669e-05
-6.871744699e-05
-0.0001144454145
-0.0001080526563
-0.0001434698352
-0.0001412520942
-0.0001499924983
-0.0001541794481
-0.0001569724991
-0.0001585432037
-0.0001654509979
-0.0001703307062
-0.000175037203
-0.0001810725953
-0.0001293092646
-0.0001444524969
-0.0001197135207
-0.0001894382731
-0.000186751131
-0.0001662288414
-0.0001370008977
-0.0001383866183
-0.0001466444373
-0.0001438506588
-0.0001540620287
-0.0001578719966
-0.0001618029637
-0.0001646679739
-0.0001717593696
-0.0001751459786
-0.0001783941698
-0.0001836780139
-0.0001293492242
-0.0001440752094
-0.0001924172975
-0.0001920079521
-0.0001681411959
-0.0001392276317
-0.000140155913
-0.0001506748376
-0.0001464858651
-0.0001561813115
-0.0001607278246
-0.0001656791719
-0.000169985462
-0.0001770329691
-0.0001785165223
-0.0001801737089
-0.0001848087122
-0.0001941930968
-0.0001918696798
-0.0001406740921
-0.0001417370659
-0.0001537276257
-0.0001479250204
-0.0001576715731
-0.0001625657897
-0.0001683779992
-0.0001741010492
-0.0001809376845
-0.0001804762869
-0.0001808384259
-0.0001853769936
-0.0001415148436
-0.0001426765521
-0.0001550287852
-0.0001487188856
-0.0001585769642
-0.0001636437373
-0.000169934734
-0.0001768253132
-0.00018346461
-0.0001813504059
-0.0001810382964
-0.0001419058099
-0.0001431287528
-0.000155767746
-0.000149909727
-0.0001587337611
-0.0001640108239
-0.0001706493495
-0.0001783468761
-0.0001849722321
-0.0001821532205
-0.0001420452027
-0.0001432980789
-0.0001557612122
-0.0001501841762
-0.0001587984152