/*--------------------------------*- C++ -*----------------------------------*\
  =========                 |
  \\      /  F ield         | OpenFOAM: The Open Source CFD Toolbox
   \\    /   O peration     | Website:  https://openfoam.org
    \\  /    A nd           | Version:  8
     \\/     M anipulation  |
\*---------------------------------------------------------------------------*/






FoamFile
{
    version     2.0;
    format      ascii;
    class       volSymmTensorField;
    location    "0";
    object      TauDDES;
}
// * * * * * * * * * * * * * * * * * * * * * * * * * * * * * * * * * * * * * //

dimensions      [0 2 -2 0 0 0 0];


internalField   nonuniform List<symmTensor>
11509
(
( 3.082779949e-05 -5.474475984e-06 1.567072019e-07 1.964310104e-05 -5.588742624e-07 4.821926268e-05 )
( 3.048857252e-05 -5.082191365e-06 3.290079462e-07 1.947770579e-05 -6.436886792e-07 4.938771963e-05 )
( 3.011404806e-05 -4.41488919e-06 7.168973326e-08 1.583445555e-05 -3.657048069e-07 4.970534064e-05 )
( 3.144670336e-05 -5.795717698e-06 3.553389547e-07 2.154610593e-05 -6.690503938e-07 4.844908472e-05 )
( 2.962601684e-05 -4.079332484e-06 3.028392541e-07 1.57579052e-05 -4.856427722e-07 5.084324221e-05 )
( 3.020237818e-05 -4.781178177e-06 4.299146497e-07 1.929974314e-05 -6.114381677e-07 5.029233216e-05 )
( 2.999789285e-05 -3.863530765e-06 2.12619522e-08 1.365647859e-05 -2.68294599e-07 5.036434595e-05 )
( 3.019998621e-05 -4.000012268e-06 -8.670888008e-08 1.375964712e-05 -2.097734466e-07 4.993966286e-05 )
( 3.096085129e-05 -5.075136869e-06 4.909532549e-07 2.088384645e-05 -4.652405892e-07 5.049418905e-05 )
( 3.361174458e-05 -7.300148809e-06 4.708429913e-07 2.469274477e-05 -7.459260019e-07 4.636179801e-05 )
( 2.967636647e-05 -3.66520203e-06 1.710844089e-07 1.362645344e-05 -3.63288791e-07 5.111920473e-05 )
( 2.910763578e-05 -3.684317107e-06 4.945692353e-07 1.561554745e-05 -5.019948048e-07 5.201776366e-05 )
( 2.943922118e-05 -3.518978701e-06 2.741822414e-07 1.360073657e-05 -4.04997337e-07 5.15921638e-05 )
( 2.983693594e-05 -4.349468782e-06 5.140111625e-07 1.893848639e-05 -4.824809139e-07 5.156379484e-05 )
( 3.035651935e-05 -3.423474936e-06 -1.180732738e-07 1.15813491e-05 -1.698318641e-07 5.042975317e-05 )
( 3.058216316e-05 -3.604175618e-06 -2.238428749e-07 1.180578147e-05 -1.121558668e-07 4.984761472e-05 )
( 3.026619379e-05 -4.260195965e-06 5.607782327e-07 1.979049375e-05 -1.136431322e-07 5.292189962e-05 )
( 2.954190677e-05 -4.011179044e-06 5.440045925e-07 1.856060771e-05 -3.63045956e-07 5.253430572e-05 )
( 3.325408034e-05 -6.540740742e-06 5.795090487e-07 2.394732837e-05 -5.275906574e-07 4.810793325e-05 )
( 3.596799797e-05 -8.800357136e-06 6.302943234e-07 2.731458153e-05 -7.669017918e-07 4.485568206e-05 )
( 3.008161366e-05 -3.25145038e-06 1.443182995e-08 1.154623988e-05 -2.49387881e-07 5.10963946e-05 )
( 2.882533045e-05 -3.083560614e-06 5.029058912e-07 1.34488746e-05 -4.319130085e-07 5.280600453e-05 )
( 2.861232861e-05 -3.240190381e-06 6.242607355e-07 1.534817056e-05 -4.451124767e-07 5.316422539e-05 )
( 2.905624933e-05 -3.249767815e-06 4.296620659e-07 1.350123603e-05 -4.279017389e-07 5.236265133e-05 )
( 2.979490273e-05 -3.052111879e-06 1.390169473e-07 1.139468804e-05 -2.99957776e-07 5.17078297e-05 )
( 3.109436511e-05 -2.94112624e-06 -3.095138652e-07 9.17052148e-06 -4.838322099e-08 4.995786367e-05 )
( 3.133932114e-05 -3.05326239e-06 -4.088258549e-07 9.225651411e-06 -1.001866679e-08 4.942936357e-05 )
( 2.911387128e-05 -3.51241647e-06 5.714067015e-07 1.790848364e-05 -1.605383204e-07 5.394783147e-05 )
( 2.910097646e-05 -3.055525895e-06 6.191182251e-07 1.840320692e-05 2.313115601e-07 5.587944179e-05 )
( 3.274171831e-05 -5.800076451e-06 7.09554115e-07 2.288553878e-05 -1.508334861e-07 5.045230864e-05 )
( 2.868989759e-05 -3.023185627e-06 5.737123274e-07 1.736012564e-05 -1.371231662e-08 5.503785724e-05 )
( 2.811839113e-05 -2.738296416e-06 6.841439131e-07 1.494279604e-05 -3.358373988e-07 5.430879537e-05 )
( 3.576532617e-05 -8.062741472e-06 6.938841466e-07 2.653694173e-05 -5.994565981e-07 4.635448568e-05 )
( 3.827939872e-05 -1.026285736e-05 7.560063864e-07 2.927673631e-05 -7.31907619e-07 4.405000436e-05 )
( 3.076037683e-05 -2.747025292e-06 -1.768107722e-07 9.132487321e-06 -1.30797531e-07 5.073431021e-05 )
( 2.845374183e-05 -2.785871175e-06 5.985208418e-07 1.330515261e-05 -4.076882476e-07 5.353750748e-05 )
( 2.911228694e-05 -2.597897947e-06 3.936444273e-07 1.122306639e-05 -3.3746133e-07 5.295258961e-05 )
( 2.82298206e-05 -2.590211807e-06 6.486754387e-07 1.319630246e-05 -3.918534617e-07 5.396232154e-05 )
( 2.943344043e-05 -2.838355385e-06 2.875283087e-07 1.140361746e-05 -3.363304586e-07 5.237794903e-05 )
( 3.04654568e-05 -2.617207201e-06 -7.252223355e-08 9.153524843e-06 -1.753363108e-07 5.126968608e-05 )
( 3.151952478e-05 -2.484629931e-06 -4.422795996e-07 7.091840416e-06 2.15262812e-08 4.888587137e-05 )
( 3.177923645e-05 -2.616324309e-06 -5.357206305e-07 7.15960141e-06 6.535734087e-08 4.821325274e-05 )
( 2.762629447e-05 -2.145992539e-06 6.908680348e-07 1.43990228e-05 -1.816250403e-07 5.544262604e-05 )
( 2.79486776e-05 -1.957407676e-06 6.060272426e-07 1.717137457e-05 3.783660816e-07 5.774747115e-05 )
( 2.718105497e-05 -1.195723712e-06 6.231173302e-07 1.553706534e-05 3.088467793e-07 5.784070527e-05 )
( 3.18399143e-05 -5.025820428e-06 8.334404242e-07 2.177704482e-05 1.894314039e-07 5.34610117e-05 )
( 2.925758054e-05 -3.164590453e-06 7.156604624e-07 1.909853927e-05 3.864093401e-07 5.695625805e-05 )
( 2.784681419e-05 -2.061009127e-06 5.903625038e-07 1.63378445e-05 1.972748578e-07 5.676910223e-05 )
( 3.541637125e-05 -7.383530829e-06 8.305067354e-07 2.551665602e-05 -2.624977924e-07 4.8593869e-05 )
( 2.709949513e-05 -1.404610316e-06 6.79661639e-07 1.380624963e-05 -2.836084034e-09 5.659410817e-05 )
( 2.766153739e-05 -2.012003733e-06 7.040214314e-07 1.280087872e-05 -3.081893283e-07 5.506898378e-05 )
( 2.787867197e-05 -2.242169103e-06 6.850028171e-07 1.297473682e-05 -3.468502143e-07 5.465441427e-05 )
( 3.821327118e-05 -9.575834156e-06 7.314546906e-07 2.852883699e-05 -6.577246836e-07 4.53645298e-05 )
( 3.121537156e-05 -2.369662297e-06 -3.366758392e-07 7.181949513e-06 -3.341686039e-08 4.955929035e-05 )
( 2.874488928e-05 -2.346342626e-06 4.866419658e-07 1.122515914e-05 -3.373316986e-07 5.358828275e-05 )
( 2.972262519e-05 -2.171344022e-06 1.731090862e-07 9.045375009e-06 -2.333559621e-07 5.252030678e-05 )
( 2.844333358e-05 -2.06835557e-06 5.399818974e-07 1.101603448e-05 -3.29302452e-07 5.41116533e-05 )
( 3.005446706e-05 -2.349878741e-06 8.004405316e-08 9.056618183e-06 -2.124419751e-07 5.201050953e-05 )
( 3.088700396e-05 -2.189821998e-06 -2.239708436e-07 7.100127732e-06 -7.955005543e-08 5.02081275e-05 )
( 3.145825758e-05 -2.027986056e-06 -4.876132493e-07 5.225635505e-06 6.216170334e-08 4.655630983e-05 )
( 3.166232636e-05 -2.108293529e-06 -5.56722739e-07 5.23903509e-06 8.945117713e-08 4.586848445e-05 )
( 2.732418397e-05 -1.590484203e-06 7.087422205e-07 1.246850388e-05 -2.167567743e-07 5.573716408e-05 )
( 2.71179415e-05 -1.303742806e-06 7.143659104e-07 1.227733537e-05 -1.602594182e-07 5.611465895e-05 )
( 2.620867417e-05 1.795166042e-07 6.528905487e-07 1.442022585e-05 4.205319613e-07 5.931144915e-05 )
( 2.69377324e-05 -6.688395047e-07 6.456167512e-07 1.650502963e-05 5.347881142e-07 5.971261635e-05 )
( 2.588302959e-05 7.150779311e-07 6.708312981e-07 1.24892731e-05 3.128384947e-07 5.869670349e-05 )
( 3.055809793e-05 -4.083541171e-06 9.734224022e-07 2.087309986e-05 4.190270317e-07 5.68402902e-05 )
( 3.470775846e-05 -6.804498753e-06 1.017202635e-06 2.45179599e-05 6.343654491e-08 5.155114195e-05 )
( 2.860814311e-05 -2.476583859e-06 7.536138469e-07 1.876397255e-05 5.009389383e-07 5.83637302e-05 )
( 2.653663614e-05 -4.624146186e-07 6.67402503e-07 1.326302572e-05 1.750409524e-07 5.772782242e-05 )
( 3.803075379e-05 -8.954527402e-06 7.914703701e-07 2.764566307e-05 -4.182020064e-07 4.733990136e-05 )
( 2.657481673e-05 -3.77053027e-07 6.755190043e-07 1.166459879e-05 1.026142815e-08 5.713967039e-05 )
( 2.677914745e-05 -7.520811778e-07 6.929356005e-07 1.188870647e-05 -5.748669096e-08 5.676253932e-05 )
( 2.781244075e-05 -1.414240728e-06 6.004615329e-07 1.065824472e-05 -2.810901947e-07 5.516807869e-05 )
( 2.81032062e-05 -1.758005624e-06 5.781474215e-07 1.094723939e-05 -3.171371645e-07 5.469020471e-05 )
( 3.121478949e-05 -1.915322173e-06 -4.095842598e-07 5.268523637e-06 2.094282436e-08 4.723848542e-05 )
( 2.928540562e-05 -1.836765705e-06 2.780924717e-07 8.896467989e-06 -2.44686106e-07 5.323233563e-05 )
( 3.012743036e-05 -1.773959411e-06 -4.894751271e-11 7.026241292e-06 -1.439740629e-07 5.14643325e-05 )
( 2.89624877e-05 -1.598672952e-06 3.396538943e-07 8.82680888e-06 -2.670757056e-07 5.368533675e-05 )
( 3.051111162e-05 -2.019755357e-06 -1.068353015e-07 7.166407158e-06 -1.200671846e-07 5.084631266e-05 )
( 3.091473627e-05 -1.792159992e-06 -3.180061299e-07 5.246327419e-06 -1.654188786e-08 4.789639206e-05 )
( 3.072286927e-05 -1.53816211e-06 -4.851883659e-07 3.534366442e-06 6.572589228e-08 4.30116088e-05 )
( 3.083797856e-05 -1.593630373e-06 -5.318472631e-07 3.530970844e-06 8.637196913e-08 4.233513027e-05 )
( 2.747685176e-05 -1.017244244e-06 6.226140385e-07 1.047784554e-05 -2.223794269e-07 5.568458437e-05 )
( 2.720709563e-05 -5.691659339e-07 6.278921774e-07 1.013522615e-05 -1.597576897e-07 5.607182538e-05 )
( 2.551055877e-05 1.435621471e-06 6.419720648e-07 1.415302268e-05 5.388211548e-07 6.070292511e-05 )
( 2.577068517e-05 7.556146215e-07 7.054873095e-07 1.313230496e-05 3.940798763e-07 5.917044837e-05 )
( 2.5500427e-05 1.538642891e-06 6.678583873e-07 1.276694275e-05 4.321969982e-07 5.964799493e-05 )
( 2.574962309e-05 8.556966691e-07 6.640701145e-07 1.57118684e-05 6.170154165e-07 6.153368304e-05 )
( 2.540675268e-05 2.450430202e-06 5.712495863e-07 1.030094336e-05 2.919271935e-07 5.870048335e-05 )
( 2.540416426e-05 1.911221716e-06 6.542596793e-07 1.171931763e-05 3.679613485e-07 5.902146586e-05 )
( 2.565229261e-05 1.552670938e-06 6.124427614e-07 1.074503416e-05 2.516196105e-07 5.854126721e-05 )
( 3.348825339e-05 -6.101127838e-06 1.211664539e-06 2.358900565e-05 3.054643685e-07 5.520781997e-05 )
( 2.835254963e-05 -2.139410071e-06 1.110843982e-06 1.949223042e-05 5.480998198e-07 6.140381447e-05 )
( 3.744551941e-05 -8.464304301e-06 9.451474057e-07 2.678808778e-05 -1.284120401e-07 5.001291356e-05 )
( 2.733854308e-05 -1.207239961e-06 8.222212955e-07 1.798778976e-05 5.960232556e-07 6.079527884e-05 )
( 2.621454041e-05 2.921928512e-07 6.529654684e-07 1.134001923e-05 1.204673765e-07 5.770404823e-05 )
( 2.599544314e-05 8.450501809e-07 6.257503173e-07 1.088330737e-05 1.667210938e-07 5.794337631e-05 )
( 2.66072966e-05 5.370925464e-07 5.654044912e-07 9.50752019e-06 -1.490227675e-08 5.683050404e-05 )
( 2.68891381e-05 -3.619530276e-08 6.042550922e-07 9.891066838e-06 -8.588538947e-08 5.65185037e-05 )
( 2.82232013e-05 -8.623750887e-07 4.197784165e-07 8.473084563e-06 -2.67734265e-07 5.465649519e-05 )
( 2.854878403e-05 -1.178499701e-06 3.854945021e-07 8.602826711e-06 -2.708554803e-07 5.427432188e-05 )
( 3.055773777e-05 -1.464235993e-06 -4.286713988e-07 3.56319515e-06 3.833639894e-08 4.368917507e-05 )
( 2.971017784e-05 -1.518215186e-06 9.356860886e-08 7.033670954e-06 -1.755902446e-07 5.208270522e-05 )
( 3.019529868e-05 -1.427528673e-06 -1.234713665e-07 5.200185569e-06 -7.995904383e-08 4.917868864e-05 )
( 2.930443952e-05 -1.182594929e-06 1.63744744e-07 6.81228903e-06 -2.018625622e-07 5.262683408e-05 )
( 3.057653885e-05 -1.625007599e-06 -2.177212366e-07 5.26412714e-06 -5.225793842e-08 4.854415238e-05 )
( 3.033091161e-05 -1.373090186e-06 -3.574114942e-07 3.56053215e-06 1.050481924e-08 4.435453593e-05 )
( 2.907826274e-05 -1.084401447e-06 -4.520524612e-07 2.225220214e-06 5.660510638e-08 3.846763866e-05 )
( 2.909668183e-05 -1.115420218e-06 -4.846211823e-07 2.217174369e-06 7.263814439e-08 3.783696593e-05 )
( 2.781463991e-05 -3.23184878e-07 4.441397436e-07 8.171002264e-06 -2.127218579e-07 5.51564699e-05 )
( 2.750278145e-05 8.74061854e-08 4.620426637e-07 8.014929335e-06 -1.709765769e-07 5.540477287e-05 )
( 2.518462861e-05 1.863015768e-06 6.499992651e-07 1.457666076e-05 6.115050155e-07 6.174605369e-05 )
( 2.455452159e-05 3.258907327e-06 5.761366424e-07 1.330878422e-05 5.471906093e-07 6.144996587e-05 )
( 2.449500607e-05 3.635568646e-06 5.649000059e-07 1.222685933e-05 4.922300718e-07 6.076697537e-05 )
( 2.492361091e-05 2.749053465e-06 6.260564192e-07 1.255180268e-05 5.004476975e-07 6.058561121e-05 )
( 2.488538485e-05 3.264114412e-06 5.839112305e-07 1.105578303e-05 4.042528303e-07 5.946901001e-05 )
( 2.465759462e-05 2.532864983e-06 6.96538109e-07 1.52898192e-05 6.219490842e-07 6.316530926e-05 )
( 2.470595609e-05 2.772112339e-06 6.256954634e-07 1.422121932e-05 6.084679853e-07 6.217293412e-05 )
( 2.505432894e-05 3.399562274e-06 5.388625937e-07 9.976158253e-06 3.273878519e-07 5.86637907e-05 )
( 2.52177615e-05 3.252592478e-06 5.081384984e-07 9.046420018e-06 2.67846616e-07 5.826364941e-05 )
( 2.557987318e-05 2.690810106e-06 5.01713032e-07 8.637456631e-06 2.023459302e-07 5.76872626e-05 )
( 3.200412903e-05 -5.107889137e-06 1.370991185e-06 2.264235263e-05 4.653547592e-07 5.915999645e-05 )
( 3.639060014e-05 -7.94040352e-06 1.111896268e-06 2.59061635e-05 1.563026757e-07 5.332747241e-05 )
( 2.794347893e-05 -1.773501481e-06 1.320401566e-06 1.964525836e-05 5.328708426e-07 6.378246326e-05 )
( 2.632862015e-05 -6.064465197e-08 8.765604775e-07 1.745693044e-05 6.25716666e-07 6.252268213e-05 )
( 2.65548606e-05 -3.395647354e-07 1.175622856e-06 1.841577614e-05 5.701868986e-07 6.422395381e-05 )
( 2.618686995e-05 1.256832434e-06 5.366854339e-07 9.179941117e-06 7.535881252e-08 5.713922656e-05 )
( 2.588109419e-05 1.836184083e-06 5.272486305e-07 8.927255294e-06 1.43527501e-07 5.733019134e-05 )
( 2.673699601e-05 1.313054327e-06 4.309675603e-07 7.439293768e-06 -3.450620056e-08 5.587962369e-05 )
( 2.710559056e-05 7.737219221e-07 4.493723225e-07 7.662517419e-06 -8.920036265e-08 5.576688636e-05 )
( 2.844694427e-05 -3.986360468e-07 2.62110035e-07 6.485037829e-06 -2.294911496e-07 5.354781388e-05 )
( 2.887125083e-05 -8.287042306e-07 2.190207198e-07 6.748988653e-06 -2.305726241e-07 5.312690337e-05 )
( 2.900827531e-05 -1.040354618e-06 -4.116756145e-07 2.244717052e-06 3.920959202e-08 3.910933447e-05 )
( 2.978783959e-05 -1.161985665e-06 -4.248963137e-08 5.163331934e-06 -1.099951277e-07 4.980114682e-05 )
( 2.971776121e-05 -1.079816911e-06 -1.983526516e-07 3.539533736e-06 -4.052074232e-08 4.5661076e-05 )
( 2.934954682e-05 -8.554620763e-07 2.651164088e-08 5.055313068e-06 -1.401007239e-07 5.042148405e-05 )
( 3.005311373e-05 -1.24748226e-06 -2.756857782e-07 3.571419484e-06 -1.652707482e-08 4.501221702e-05 )
( 2.887777373e-05 -9.830679346e-07 -3.555598767e-07 2.250365469e-06 2.174633806e-08 3.975882282e-05 )
( 2.631854477e-05 -6.950516536e-07 -3.930831554e-07 1.287521286e-06 4.239229412e-08 3.28734568e-05 )
( 2.623617183e-05 -7.084051958e-07 -4.13040965e-07 1.281125378e-06 5.479851595e-08 3.233128518e-05 )
( 2.798789501e-05 6.339128333e-08 2.973342816e-07 6.379742899e-06 -2.090543205e-07 5.391000013e-05 )
( 2.75488328e-05 6.042436667e-07 3.215009485e-07 6.095895515e-06 -1.565291967e-07 5.41648551e-05 )
( 2.385260086e-05 4.983686722e-06 4.68541657e-07 1.183231871e-05 4.599103818e-07 6.094927448e-05 )
( 2.38552966e-05 4.684352461e-06 5.126199198e-07 1.284330028e-05 5.171951898e-07 6.193474837e-05 )
( 2.389248039e-05 5.298662018e-06 4.244833747e-07 1.063184118e-05 4.074745732e-07 5.992921433e-05 )
( 2.440860226e-05 4.338407507e-06 4.949552022e-07 1.069688915e-05 3.99938898e-07 5.967327525e-05 )
( 2.452161425e-05 4.970323516e-06 3.880854536e-07 8.975745914e-06 3.036154794e-07 5.833261093e-05 )
( 2.346466681e-05 4.762585377e-06 6.032104238e-07 1.434572096e-05 5.230164106e-07 6.37567864e-05 )
( 2.362920713e-05 4.826641089e-06 5.531445026e-07 1.38415171e-05 5.268708492e-07 6.320231478e-05 )
( 2.411932655e-05 3.172263405e-06 7.788363519e-07 1.549497028e-05 6.025943549e-07 6.439116987e-05 )
( 2.409506487e-05 3.708917347e-06 6.237763728e-07 1.423093181e-05 6.01665306e-07 6.311304605e-05 )
( 2.476255941e-05 4.681999599e-06 3.691191068e-07 8.147678273e-06 2.558091694e-07 5.749454067e-05 )
( 2.498203139e-05 4.394236839e-06 3.083951583e-07 6.805005341e-06 1.782719892e-07 5.586068437e-05 )
( 2.54369188e-05 3.601674052e-06 3.486954938e-07 6.774808753e-06 1.515466295e-07 5.586026236e-05 )
( 2.942377614e-05 -2.958981213e-06 1.437974902e-06 2.099429548e-05 5.283225732e-07 6.408912304e-05 )
( 3.517305595e-05 -7.239318165e-06 1.206720071e-06 2.498166396e-05 4.240650924e-07 5.692620471e-05 )
( 2.695007061e-05 -6.808361377e-07 1.379130481e-06 1.915265784e-05 5.124597351e-07 6.578408647e-05 )
( 2.464282261e-05 2.133331691e-06 9.389972888e-07 1.659691588e-05 5.873075111e-07 6.497537834e-05 )
( 2.48212491e-05 1.835256853e-06 1.194402785e-06 1.74780962e-05 5.17675403e-07 6.66949345e-05 )
( 2.623149339e-05 2.157389872e-06 3.904220307e-07 7.047607141e-06 4.57551117e-08 5.593947935e-05 )
( 2.593204772e-05 2.818610483e-06 3.774835591e-07 6.696231139e-06 9.172082827e-08 5.57482781e-05 )
( 2.65848339e-05 1.81397661e-06 3.230246364e-07 5.663616321e-06 -3.795384984e-08 5.434161721e-05 )
( 2.707375825e-05 1.182717597e-06 3.284519892e-07 5.956468158e-06 -1.004638222e-07 5.43247661e-05 )
( 2.838527143e-05 -6.322308366e-08 1.388978461e-07 4.801425348e-06 -1.764865658e-07 5.134588719e-05 )
( 2.888054223e-05 -4.75952902e-07 8.375796767e-08 4.953059943e-06 -1.679493522e-07 5.089611295e-05 )
( 2.635351848e-05 -6.730930409e-07 -3.607440817e-07 1.300514214e-06 3.131000881e-08 3.344485958e-05 )
( 2.933100041e-05 -8.542120895e-07 -1.299189023e-07 3.521310646e-06 -6.610887482e-08 4.632572382e-05 )
( 2.842692993e-05 -7.66451933e-07 -2.276766224e-07 2.248257942e-06 -1.336234057e-08 4.105605331e-05 )
( 2.887943447e-05 -5.687777502e-07 -6.856403445e-08 3.447903055e-06 -9.235199627e-08 4.692722723e-05 )
( 2.868838055e-05 -8.931694992e-07 -2.900565619e-07 2.259461326e-06 4.214792071e-09 4.04112543e-05 )
( 2.633523582e-05 -6.409760545e-07 -3.172649485e-07 1.307122716e-06 2.282659928e-08 3.403690062e-05 )
( 2.231642975e-05 -3.936250437e-07 -3.122475789e-07 6.66093058e-07 2.724428505e-08 2.632897667e-05 )
( 2.214528831e-05 -3.961348796e-07 -3.247934046e-07 6.622082651e-07 3.690752237e-08 2.590001714e-05 )
( 2.784540629e-05 4.306403696e-07 1.85745904e-07 4.672172963e-06 -1.603114868e-07 5.165159746e-05 )
( 2.728508116e-05 9.707317759e-07 2.192367248e-07 4.490742413e-06 -1.255388753e-07 5.184904512e-05 )
( 2.333373232e-05 6.395217042e-06 3.40177678e-07 1.04305891e-05 3.654242562e-07 5.988610428e-05 )
( 2.32228158e-05 6.536655746e-06 3.593754343e-07 1.128110307e-05 3.917452602e-07 6.10260322e-05 )
( 2.33289411e-05 5.678567959e-06 4.66331386e-07 1.282274479e-05 4.822865094e-07 6.254492473e-05 )
( 2.35056541e-05 6.719376415e-06 2.287836054e-07 8.844630429e-06 2.694589227e-07 5.775433237e-05 )
( 2.390982627e-05 5.962170235e-06 3.02878135e-07 8.921005247e-06 2.901138885e-07 5.821068771e-05 )
( 2.412469439e-05 5.756073733e-06 2.481129684e-07 7.666539204e-06 2.323918693e-07 5.660279567e-05 )
( 2.258126369e-05 6.910016964e-06 4.103004017e-07 1.325880021e-05 3.793786618e-07 6.314212806e-05 )
( 2.22887229e-05 6.760322321e-06 5.206068181e-07 1.408312164e-05 3.622064355e-07 6.431565271e-05 )
( 2.264573595e-05 6.835445674e-06 3.918848108e-07 1.284112841e-05 3.974508616e-07 6.285821291e-05 )
( 2.318309271e-05 4.753628218e-06 7.295980708e-07 1.522110142e-05 4.849339348e-07 6.506716454e-05 )
( 2.445079917e-05 5.223512289e-06 2.336241209e-07 6.651118383e-06 1.80785122e-07 5.516187957e-05 )
( 2.422273064e-05 5.016073374e-06 1.52674744e-07 5.162846719e-06 1.089450734e-07 5.247002991e-05 )
( 2.474595749e-05 4.429222372e-06 1.712345323e-07 4.698295925e-06 8.512095917e-08 5.214349585e-05 )
( 3.377400571e-05 -6.265106549e-06 1.227802954e-06 2.397631033e-05 5.622415529e-07 6.04101333e-05 )
( 2.713657159e-05 -8.155996056e-07 1.515125518e-06 1.972811697e-05 5.520678314e-07 6.788323662e-05 )
( 2.86850991e-05 -2.30906403e-06 1.463485546e-06 2.076403507e-05 5.892835588e-07 6.712492905e-05 )
( 2.488962673e-05 1.750134743e-06 1.402278826e-06 1.821905971e-05 5.128816838e-07 6.890618533e-05 )
( 2.416653115e-05 2.713275762e-06 1.059990495e-06 1.672755388e-05 5.42176906e-07 6.63936662e-05 )
( 2.332530676e-05 4.258154604e-06 8.751701444e-07 1.59507199e-05 4.7220243e-07 6.598435721e-05 )
( 2.331844371e-05 4.180047654e-06 1.024209951e-06 1.64049452e-05 4.511426255e-07 6.717537326e-05 )
( 2.310766286e-05 4.396275017e-06 1.148963747e-06 1.711823461e-05 4.381005851e-07 6.86227504e-05 )
( 2.604105248e-05 2.475964266e-06 3.029665834e-07 5.495526693e-06 1.616405854e-08 5.422048707e-05 )
( 2.566687544e-05 3.190558573e-06 2.541663093e-07 5.014564522e-06 4.783646901e-08 5.348209379e-05 )
( 2.613763718e-05 2.215720315e-06 2.329012148e-07 4.207333859e-06 -3.475707544e-08 5.179899017e-05 )
( 2.671691072e-05 1.590762395e-06 2.335140721e-07 4.361731953e-06 -8.060430901e-08 5.18840352e-05 )
( 2.78060179e-05 1.808044772e-07 5.009727744e-08 3.272950153e-06 -1.242172658e-07 4.784698831e-05 )
( 2.837285501e-05 -2.207004144e-07 -8.642506266e-09 3.386589469e-06 -1.159834326e-07 4.7452133e-05 )
( 2.245193718e-05 -3.851230019e-07 -2.875612211e-07 6.736245837e-07 2.041351799e-08 2.679059617e-05 )
( 2.808227509e-05 -5.845164992e-07 -1.704872545e-07 2.230918881e-06 -3.332888099e-08 4.168290616e-05 )
( 2.609156763e-05 -4.968820235e-07 -2.173394478e-07 1.314749056e-06 1.790968596e-09 3.525289139e-05 )
( 2.764100464e-05 -3.462633629e-07 -1.150385103e-07 2.194693707e-06 -5.335962072e-08 4.229459228e-05 )
( 2.625449633e-05 -5.835970569e-07 -2.665904901e-07 1.31619538e-06 1.33632021e-08 3.464459587e-05 )
( 2.254532774e-05 -3.699194053e-07 -2.543205255e-07 6.787891493e-07 1.748336409e-08 2.728080108e-05 )
( 1.720913133e-05 -1.915208969e-07 -2.246169117e-07 2.967055082e-07 1.474095246e-08 1.92448515e-05 )
( 1.698998676e-05 -1.893305637e-07 -2.307070019e-07 2.949248312e-07 2.123925213e-08 1.894288835e-05 )
( 2.717116149e-05 6.474800216e-07 1.030923471e-07 3.184178922e-06 -1.158310212e-07 4.814486601e-05 )
( 2.647359543e-05 1.18626258e-06 1.411578694e-07 3.06252673e-06 -9.304088167e-08 4.825244105e-05 )
( 2.284478069e-05 7.584818377e-06 1.504704557e-07 8.923514542e-06 2.430183201e-07 5.722494097e-05 )
( 2.276327177e-05 7.509031093e-06 2.250407505e-07 1.022380638e-05 2.993614885e-07 5.930666521e-05 )
( 2.264937211e-05 7.44848694e-06 2.710103786e-07 1.144331145e-05 3.346312099e-07 6.096094148e-05 )
( 2.300440065e-05 7.428569006e-06 7.929121182e-08 7.451123565e-06 1.811415586e-07 5.512988719e-05 )
( 2.350251452e-05 6.642962035e-06 1.5851694e-07 7.522690794e-06 2.046560184e-07 5.600376608e-05 )
( 2.333508019e-05 6.657144695e-06 5.717143381e-08 5.964290722e-06 1.326518344e-07 5.293763752e-05 )
( 2.191228123e-05 8.363036613e-06 2.502161749e-07 1.241239625e-05 2.488809798e-07 6.194700836e-05 )
( 2.163758109e-05 8.603549759e-06 2.852906107e-07 1.295181846e-05 2.106943953e-07 6.258040958e-05 )
( 2.148626299e-05 8.094807527e-06 4.788000183e-07 1.418496322e-05 2.445841858e-07 6.487935025e-05 )
( 2.213238986e-05 8.218081348e-06 2.069739651e-07 1.169524148e-05 2.615633719e-07 6.108731031e-05 )
( 2.219680755e-05 6.503107215e-06 6.716018675e-07 1.498088204e-05 3.42321556e-07 6.567858509e-05 )
( 2.367938941e-05 6.147522527e-06 8.214932734e-08 5.448344382e-06 1.232908033e-07 5.236170909e-05 )
( 2.38622215e-05 5.754702215e-06 1.025283325e-07 5.176942977e-06 1.158032532e-07 5.210911331e-05 )
( 2.283483263e-05 5.341939413e-06 5.772421829e-08 3.798952548e-06 5.549796711e-08 4.783658369e-05 )
( 2.334176315e-05 4.663731943e-06 9.302936377e-08 3.500801768e-06 4.550401655e-08 4.797413203e-05 )
( 2.50291705e-05 3.808463134e-06 1.779571335e-07 4.180465567e-06 4.972503831e-08 5.145568139e-05 )
( 3.025546903e-05 -3.467284841e-06 1.276165221e-06 2.196683636e-05 6.615132406e-07 6.716318603e-05 )
( 2.457261508e-05 2.176709131e-06 1.479175921e-06 1.88043341e-05 5.968858545e-07 7.141655078e-05 )
( 2.733920519e-05 -9.48089621e-07 1.449674073e-06 2.023972593e-05 6.419470537e-07 6.973866402e-05 )
( 2.395675256e-05 2.974755034e-06 1.421978595e-06 1.815826363e-05 5.47098125e-07 7.077043847e-05 )
( 2.316146492e-05 4.189770607e-06 1.317088049e-06 1.765170782e-05 4.984105431e-07 7.032223948e-05 )
( 2.21548944e-05 6.343272617e-06 7.969862281e-07 1.560020246e-05 3.451955308e-07 6.673618918e-05 )
( 2.235463762e-05 5.692544164e-06 9.775125136e-07 1.632940803e-05 3.748945687e-07 6.802465214e-05 )
( 2.162544843e-05 7.085785001e-06 8.900684065e-07 1.627949314e-05 3.23691296e-07 6.804628356e-05 )
( 2.152594607e-05 6.879286047e-06 1.047797014e-06 1.702334339e-05 3.923045426e-07 6.961665349e-05 )
( 2.217912879e-05 5.713873179e-06 1.161408932e-06 1.719540705e-05 4.437385428e-07 6.99381053e-05 )
( 2.558018241e-05 2.835207624e-06 2.146309726e-07 4.11973997e-06 5.117092972e-09 5.156908446e-05 )
( 2.523783769e-05 3.402880793e-06 1.949247803e-07 4.036468908e-06 3.144054972e-08 5.132079241e-05 )
( 2.509383921e-05 2.443979838e-06 1.640241294e-07 2.93054245e-06 -3.173963847e-08 4.795458517e-05 )
( 2.576826591e-05 1.802803013e-06 1.613220491e-07 2.991457222e-06 -6.421721821e-08 4.818318121e-05 )
( 2.647847577e-05 3.18719799e-07 5.521951785e-10 2.079653314e-06 -7.860869289e-08 4.318338688e-05 )
( 2.709894397e-05 -4.078411919e-08 -5.871643083e-08 2.139245225e-06 -7.155707493e-08 4.276373511e-05 )
( 1.740902189e-05 -1.896077038e-07 -2.075820191e-07 3.0035946e-07 1.082474199e-08 1.957708628e-05 )
( 2.582216075e-05 -3.662134134e-07 -1.707581276e-07 1.307722187e-06 -1.225586033e-08 3.584924707e-05 )
( 2.253225102e-05 -2.860838606e-07 -1.813210559e-07 6.881681429e-07 7.017332049e-09 2.831903475e-05 )
( 2.542080983e-05 -1.842336275e-07 -1.239183689e-07 1.281767481e-06 -2.69854965e-08 3.639605347e-05 )
( 2.258019231e-05 -3.372554715e-07 -2.169239224e-07 6.858132338e-07 1.375213365e-08 2.779558054e-05 )
( 1.758155668e-05 -1.839089663e-07 -1.845154003e-07 3.032858729e-07 1.059240695e-08 1.993446494e-05 )
( 1.158888062e-05 -7.845831362e-08 -1.44354587e-07 1.074600178e-07 6.164719846e-09 1.236955723e-05 )
( 1.138368407e-05 -7.544220182e-08 -1.469142745e-07 1.068350599e-07 9.687237679e-09 1.21857729e-05 )
( 2.574736936e-05 7.41265012e-07 5.247790824e-08 2.01477701e-06 -7.463901142e-08 4.342625107e-05 )
( 2.490542647e-05 1.239729386e-06 9.069136553e-08 1.949603075e-06 -6.275582365e-08 4.346021888e-05 )
( 2.237062472e-05 8.254672139e-06 8.967536047e-08 8.938067367e-06 2.090318816e-07 5.675635475e-05 )
( 2.209942613e-05 8.39272343e-06 -7.923754097e-09 7.668443686e-06 1.456538854e-07 5.39202083e-05 )
( 2.221171235e-05 8.504728612e-06 1.151646742e-07 1.019407318e-05 2.312824705e-07 5.833060277e-05 )
( 2.22469298e-05 8.114893717e-06 -2.469482929e-08 6.925491107e-06 1.286712319e-07 5.277693708e-05 )
( 2.24164105e-05 7.803396329e-06 -1.272610817e-08 6.609137472e-06 1.273117363e-07 5.258531019e-05 )
( 2.276224586e-05 7.227629339e-06 2.356157225e-08 6.386319455e-06 1.35603301e-07 5.292314017e-05 )
( 2.201224561e-05 6.931230928e-06 -3.387310699e-08 4.934449862e-06 7.258299917e-08 4.872651698e-05 )
( 2.116529868e-05 9.6356016e-06 1.10236968e-07 1.21133271e-05 1.024743952e-07 6.063964611e-05 )
( 2.138031596e-05 9.096430404e-06 1.111865231e-07 1.166368656e-05 1.637260851e-07 6.021617446e-05 )
( 2.086303721e-05 9.589297406e-06 2.474715757e-07 1.340775179e-05 1.019521605e-07 6.259706424e-05 )
( 2.077045792e-05 9.461822629e-06 3.99287245e-07 1.426359177e-05 1.255794473e-07 6.450145156e-05 )
( 2.106747525e-05 9.52785831e-06 -8.80950779e-09 1.023585082e-05 1.129366183e-07 5.690140461e-05 )
( 2.125926949e-05 8.413461728e-06 5.505985996e-07 1.467880429e-05 2.151985541e-07 6.569051038e-05 )
( 2.232084807e-05 6.422404567e-06 8.980625132e-10 4.435579285e-06 6.880168257e-08 4.812024781e-05 )
( 2.252650665e-05 5.914776921e-06 2.891447615e-08 4.089799859e-06 6.574971678e-08 4.780131712e-05 )
( 2.074861186e-05 5.2306832e-06 3.889709888e-08 2.881633236e-06 2.778108765e-08 4.245129458e-05 )
( 2.126632353e-05 4.607779829e-06 7.136975455e-08 2.579961119e-06 2.538250854e-08 4.273909144e-05 )
( 2.373745338e-05 4.09444192e-06 1.153674631e-07 3.136302212e-06 3.047175312e-08 4.752864334e-05 )
( 2.887457049e-05 -2.381456397e-06 1.19662775e-06 2.15216678e-05 7.51071525e-07 7.126329001e-05 )
( 2.742410652e-05 -9.982885558e-07 1.300086524e-06 2.076807868e-05 7.367832495e-07 7.198318781e-05 )
( 2.295562808e-05 4.334122423e-06 1.416750706e-06 1.851661546e-05 5.832912962e-07 7.279636338e-05 )
( 2.303871224e-05 4.305251423e-06 1.392449576e-06 1.816395707e-05 5.436818924e-07 7.187770825e-05 )
( 2.386006599e-05 3.026599416e-06 1.458036195e-06 1.891190186e-05 6.338289609e-07 7.317309792e-05 )
( 2.451234104e-05 2.221827799e-06 1.426856898e-06 1.947473174e-05 6.77486355e-07 7.373260451e-05 )
( 2.145149483e-05 6.714054052e-06 1.193078219e-06 1.761090243e-05 4.74196554e-07 7.145341806e-05 )
( 2.134027818e-05 7.747601558e-06 7.491304359e-07 1.565228195e-05 2.730793938e-07 6.725026469e-05 )
( 2.046297413e-05 9.043008504e-06 7.876861901e-07 1.63088007e-05 2.747685528e-07 6.849828787e-05 )
( 2.051516822e-05 9.194769518e-06 6.468978313e-07 1.5617381e-05 1.985898308e-07 6.709808804e-05 )
( 2.013386984e-05 9.197829058e-06 8.669136946e-07 1.694182174e-05 3.036884948e-07 6.934317207e-05 )
( 2.098624282e-05 7.676819223e-06 1.045538511e-06 1.713894744e-05 3.887753905e-07 7.037834439e-05 )
( 2.448914893e-05 3.034794872e-06 1.561826082e-07 2.939601472e-06 -1.979266306e-09 4.770340092e-05 )
( 2.404290171e-05 3.562441179e-06 1.380768282e-07 2.960074198e-06 1.723544507e-08 4.739353972e-05 )
( 2.32572329e-05 2.460366659e-06 1.228639945e-07 1.925713377e-06 -2.397593946e-08 4.284496754e-05 )
( 2.402254177e-05 1.827402002e-06 1.132064398e-07 1.914421318e-06 -4.610537019e-08 4.320032531e-05 )
( 2.423248225e-05 3.641656576e-07 -2.208295058e-08 1.21744722e-06 -4.516147456e-08 3.724278577e-05 )
( 2.4882258e-05 6.052120938e-08 -7.466277907e-08 1.25415454e-06 -3.93548838e-08 3.686457421e-05 )