/*--------------------------------*- C++ -*----------------------------------*\
  =========                 |
  \\      /  F ield         | OpenFOAM: The Open Source CFD Toolbox
   \\    /   O peration     | Website:  https://openfoam.org
    \\  /    A nd           | Version:  8
     \\/     M anipulation  |
\*---------------------------------------------------------------------------*/






FoamFile
{
    version     2.0;
    format      ascii;
    class       volScalarField;
    location    "0";
    object      V;
}
// * * * * * * * * * * * * * * * * * * * * * * * * * * * * * * * * * * * * * //

dimensions      [0 3 0 0 0 0 0];


internalField   nonuniform List<scalar> 
11509
(
7.916810699e-05
7.858717318e-05
7.301554543e-05
0.0002178509348
7.256625706e-05
7.802652981e-05
2.483462628e-05
2.493377528e-05
0.0002141880955
0.000229230319
2.480332163e-05
7.191323764e-05
2.467296029e-05
7.70044193e-05
2.197945021e-05
2.202350477e-05
0.0002100693439
7.618707724e-05
0.0002260595035
0.0002398112337
2.191665243e-05
2.443541004e-05
7.104099352e-05
2.460938091e-05
2.184806854e-05
1.937649426e-05
1.941512682e-05
7.47343256e-05
0.00021578164
0.0002229858661
7.415568579e-05
6.98403451e-05
0.0002366640294
0.0002494749061
1.932925657e-05
2.431916812e-05
2.164668644e-05
2.408395701e-05
2.175402755e-05
1.926949807e-05
1.762198397e-05
1.765341134e-05
6.845872981e-05
7.054362098e-05
6.621860337e-05
0.0002130189817
7.188697189e-05
7.083212803e-05
0.0002321991438
6.679076962e-05
2.358278761e-05
2.389736906e-05
0.0002462724809
1.758255074e-05
2.150402398e-05
1.910184148e-05
2.133733044e-05
1.919551892e-05
1.753293669e-05
1.741768782e-05
1.744539359e-05
2.330950321e-05
2.291985935e-05
7.343125943e-05
6.882115074e-05
6.713121363e-05
0.0002199204892
0.000229040722
7.58258822e-05
6.500230105e-05
0.0002427116294
2.24189443e-05
2.266538587e-05
2.087195437e-05
2.112326228e-05
1.738280441e-05
1.898487488e-05
1.739013113e-05
1.883628957e-05
1.747001127e-05
1.733836827e-05
1.438491202e-05
1.440338525e-05
2.05622211e-05
2.021988382e-05
6.959775212e-05
2.260870989e-05
2.337625863e-05
7.06757213e-05
2.090758793e-05
2.137832557e-05
2.137933781e-05
0.0002259637375
0.0002185078203
0.0002388802399
7.315835923e-05
2.237689097e-05
2.213730704e-05
1.964814468e-05
1.986682425e-05
1.841623091e-05
1.864989307e-05
1.436192066e-05
1.728818265e-05
1.720588591e-05
1.715728453e-05
1.728089997e-05
1.433284436e-05
1.187702906e-05
1.188925419e-05
1.81275977e-05
1.776702606e-05
2.306563699e-05
2.208355626e-05
2.128111529e-05
2.268440514e-05
2.108497573e-05
6.962587396e-05
2.393318627e-05
2.18886036e-05
1.862096586e-05
1.943389011e-05
0.0002150683642
0.0002339524045
6.865709733e-05
6.765950383e-05
6.687056414e-05
2.003457422e-05
1.99961352e-05
1.685288135e-05
1.732864648e-05
1.675946672e-05
1.698520832e-05
1.186203713e-05
1.710765812e-05
1.424530452e-05
1.697766162e-05
1.429497132e-05
1.184325049e-05
9.804217989e-06
9.812224639e-06
1.646625169e-05
1.608133538e-05
2.236489855e-05
2.232687577e-05
1.992876231e-05
2.074408189e-05
1.96318185e-05
2.21194994e-05
2.174002908e-05
2.196873172e-05
2.28455854e-05
2.090460577e-05
1.507943762e-05
1.868007064e-05
0.00022840634
0.0002305928825
7.041957529e-05
7.588070327e-05
7.004861532e-05
1.6486398e-05
1.955262514e-05
1.46928536e-05
1.552733228e-05
1.655753221e-05
1.680614366e-05
9.794585059e-06
1.418080797e-05
1.178596526e-05
1.409442977e-05
1.181854874e-05
9.782660571e-06
8.091696294e-06
8.096863114e-06
1.619782696e-05
1.570590514e-05
1.861380324e-05
2.029654546e-05
2.137066703e-05
1.949088124e-05
1.797901483e-05
1.906381109e-05
2.213697247e-05
2.133042056e-05
1.989600498e-05
2.185583642e-05
1.077705989e-05
1.250051378e-05
1.459829245e-05
0.0002197218625
6.87615887e-05
7.069219414e-05
7.495911617e-05
2.286210727e-05
2.211938098e-05
2.329990424e-05
6.573513352e-05
1.34428296e-05
1.000017967e-05
1.388949664e-05
1.504125731e-05
1.380700652e-05
1.397861284e-05
8.085634398e-06
1.174412813e-05
9.745670279e-06
1.168724657e-05
9.766778074e-06
8.078258216e-06
6.677309545e-06
6.680574486e-06
1.354924147e-05
1.318640551e-05
1.644291413e-05
1.993926325e-05
2.232097469e-05
9.994494547e-06
1.467413747e-05
1.457334355e-05
2.08558385e-05
2.26532201e-05
1.954293353e-05
1.812630548e-05
2.297615977e-05
1.029583206e-05
8.646180358e-06
1.054947887e-05
1.198526374e-05
9.930298906e-06
0.0002276219213
7.505268335e-05
6.945827115e-05
2.341406171e-05
2.361882841e-05
2.181979566e-05
2.263970324e-05
2.042322583e-05
2.06348203e-05
2.314741599e-05
1.18017586e-05
8.297419996e-06
1.179694296e-05
1.268188662e-05
1.149132758e-05
1.160939837e-05
6.673612161e-06
9.718989618e-06
8.054818645e-06
9.681994534e-06
8.068251541e-06
6.669225723e-06
5.509474526e-06
5.511473689e-06
1.130669016e-05
1.103866503e-05
9.744965092e-06
1.200130742e-05
1.320565724e-05
9.550410153e-06
8.281824203e-06
1.217031176e-05
1.19396699e-05
1.364536519e-05
1.038179605e-05
1.793216873e-05
1.997060425e-05
1.312348964e-05
1.994504964e-05
8.873030505e-06
7.812959426e-06
8.877351305e-06
9.85683453e-06
8.629020415e-06
7.781028628e-05
7.105177743e-05
2.295930903e-05
2.288534649e-05
2.323171303e-05
8.070681514e-05
2.235129927e-05
2.032735928e-05
2.313794962e-05
2.149576026e-05
2.182155825e-05
2.073061256e-05
1.022849019e-05
7.637556773e-06
9.974483167e-06
1.065395339e-05
9.549159205e-06
9.629996958e-06
5.507328699e-06
8.038217404e-06
6.654777083e-06
8.014575434e-06
6.663107452e-06
5.504885359e-06
4.545430232e-06
4.546593746e-06
9.41710314e-06
9.218950562e-06
7.936986086e-06
8.968962193e-06
1.003015517e-05
1.083479012e-05
9.779728467e-06
8.266363834e-06
7.462610423e-06
1.028850093e-05
9.803577996e-06
9.865273806e-06
1.074081437e-05
9.290023334e-06
8.333513904e-06
9.996885707e-06
1.291326777e-05
1.20145109e-05
1.07161859e-05
2.069144394e-05
7.599171415e-06
6.938841486e-06
7.452892884e-06
8.118140444e-06
7.442273213e-06
7.238032187e-05
7.583731854e-05
2.36142566e-05
2.271980158e-05
2.386630506e-05
2.313014865e-05
2.362446297e-05
2.051428093e-05
1.32901651e-05
1.318880899e-05
1.263820362e-05
1.285258223e-05
2.116793039e-05
8.799625563e-06
6.882509503e-06
8.403254409e-06
8.924372778e-06
7.92520225e-06
7.980147278e-06
4.544289317e-06
6.644827825e-06
5.49635268e-06
6.630103932e-06
5.501317442e-06
4.54308973e-06
3.749761686e-06
3.750380274e-06
7.831026764e-06
7.68452476e-06
7.112152646e-06
7.789106564e-06
8.387218462e-06
9.079469868e-06
8.424526699e-06
7.112940397e-06
6.621125792e-06
8.675729566e-06
8.064784844e-06
8.45272325e-06
9.012119797e-06
8.008325573e-06
7.338415046e-06
8.874328542e-06
8.138981462e-06
1.056639307e-05
9.4418882e-06
9.111323944e-06
8.779687592e-06
6.47612254e-06
6.084312991e-06
6.24518869e-06
6.694314375e-06
6.381135669e-06
7.500761011e-05
2.32872299e-05
2.261849998e-05
2.252932455e-05
2.048750231e-05
2.466261204e-05
2.44490279e-05
2.211808864e-05
2.064825033e-05
9.942521629e-06
9.946465434e-06
9.810562628e-06
9.95093216e-06
9.772840019e-06
9.569523224e-06
9.784884796e-06
9.855715308e-06
1.229223096e-05
7.526615885e-06
6.107514142e-06
7.05909844e-06
7.45811773e-06
6.570633159e-06
6.607585828e-06
3.749260566e-06
5.490748347e-06
4.538405801e-06
5.481935535e-06
4.541174113e-06
3.748839689e-06
3.093161251e-06
3.093430501e-06
6.503786254e-06
6.395565702e-06
6.293522976e-06
6.726157529e-06
7.016550513e-06
7.60489963e-06
7.222426297e-06
6.091845109e-06
5.807011608e-06
7.300761539e-06
6.644960464e-06
7.213386857e-06
7.55652076e-06
6.871166079e-06
6.40299356e-06
7.71151844e-06
7.190970516e-06
8.673157497e-06
8.082516397e-06
7.884390059e-06
7.213999398e-06
5.497335628e-06
5.283672214e-06
5.225134925e-06
5.525884447e-06
5.445857046e-06
2.483546246e-05
2.271135929e-05
2.259406195e-05
2.281054878e-05
2.088432026e-05
1.91135287e-05
1.537574117e-05
2.379165148e-05
2.270673178e-05
1.040113837e-05
8.458870408e-06
8.453200111e-06
8.364436733e-06
8.462447489e-06
8.319261878e-06
8.181760499e-06
8.331176293e-06
9.612916118e-06
8.376795747e-06
9.40413793e-06
6.408252834e-06
5.357889682e-06
5.916123918e-06
6.220977288e-06
5.442991549e-06
5.467462737e-06
3.093057001e-06
4.535598182e-06
3.746619939e-06
4.530663535e-06
3.747975936e-06
3.093108001e-06
5.395874703e-06
5.316088495e-06
5.516085486e-06
5.781970538e-06
5.872112472e-06
6.367297103e-06
6.168077099e-06
5.197736379e-06
5.04818586e-06
6.133413098e-06
5.48246759e-06
6.135830424e-06
6.332463477e-06
5.873296028e-06
5.547002044e-06
6.663363273e-06
6.291963073e-06
7.138502156e-06
6.89918535e-06
6.790281071e-06
5.942377723e-06
4.651717472e-06
4.554241731e-06
4.3661943e-06
4.565328974e-06
4.630351078e-06
2.206887056e-05
2.622911135e-05
2.356813779e-05
2.142094581e-05
1.953271331e-05
1.392326537e-05
1.190915775e-05
1.138455688e-05
1.393043315e-05
1.314420881e-05
9.117612637e-06
8.549174701e-06
7.176192948e-06
7.166887584e-06
7.111094845e-06
7.177273972e-06
7.065697452e-06
6.975515336e-06
7.077881799e-06
8.203647558e-06
7.104680904e-06
8.067140944e-06
5.436039847e-06
4.659143666e-06
4.948835177e-06
5.18107353e-06
4.505760131e-06
4.52159895e-06
3.745575518e-06
3.092429876e-06
3.743149392e-06
3.092897126e-06
4.472886789e-06
4.414253401e-06
4.798864598e-06
4.952169472e-06
4.915914969e-06
5.32935973e-06
5.251268357e-06
4.421372283e-06
4.35842976e-06
5.145645689e-06
4.52847268e-06
5.205507515e-06
5.304215691e-06
5.005031831e-06
4.778405696e-06
5.731740322e-06
5.464039135e-06
5.889172307e-06
5.875393588e-06
5.825615428e-06
4.905452943e-06
3.926096526e-06
3.902583526e-06
3.644694786e-06
3.774473154e-06
3.92513464e-06
2.176021116e-05
1.520598627e-05
1.336078242e-05
1.069653177e-05
1.388308387e-05
1.124164608e-05
9.823152111e-06
9.487744058e-06
1.097585847e-05
1.065856547e-05
1.02476249e-05
9.841277823e-06
7.850966937e-06
7.468325013e-06
6.073941763e-06
6.064375971e-06
6.031454565e-06
6.073929133e-06
5.989763622e-06
5.933379835e-06
6.002275309e-06
6.984038174e-06
6.015238557e-06
6.897785848e-06
4.597676623e-06
4.023879893e-06
4.133321428e-06
4.30959123e-06
3.727799279e-06
3.737695181e-06
3.092463876e-06
3.091627126e-06
3.705196455e-06
3.662313288e-06
4.150475445e-06
4.22886817e-06
4.11653593e-06
4.459414253e-06
4.459410687e-06
3.751656852e-06
3.742536484e-06
4.312090307e-06
3.744044033e-06
4.40674449e-06
4.441216027e-06
4.254518957e-06
4.097810642e-06
4.91243427e-06
4.717000479e-06
4.868272524e-06
4.993947134e-06
4.982455616e-06
4.056936382e-06
3.306764398e-06
3.328659886e-06
3.039851871e-06
3.122508273e-06
3.319210629e-06
1.103777769e-05
1.167029833e-05
1.010829482e-05
1.05856102e-05
9.402071225e-06
8.649161158e-06
1.121474545e-05
9.117291344e-06
8.112732568e-06
7.905420697e-06
9.174089651e-06
8.967783808e-06
8.672419923e-06
8.415607706e-06
6.733598149e-06
6.476276817e-06
5.13126557e-06
5.123179863e-06
5.105945979e-06
5.130961043e-06
5.069817131e-06
5.037360089e-06
5.082545166e-06
5.933925327e-06
5.085524741e-06
5.882326865e-06
3.879274449e-06
3.456487767e-06
3.447851722e-06
3.581022788e-06
3.08272722e-06
3.088560127e-06
3.067511899e-06
3.03635821e-06
3.572913614e-06
3.602447788e-06
3.44793214e-06
3.730644547e-06
3.779108208e-06
3.176932837e-06
3.199775552e-06
3.610213681e-06
3.097969439e-06
3.723966679e-06
3.717437273e-06
3.609177904e-06
3.501428505e-06
4.197781268e-06
4.052900555e-06
4.031277324e-06
4.238029013e-06
4.250498236e-06
3.360470043e-06
2.780394812e-06
2.828585966e-06
2.533624703e-06
2.584465967e-06
2.801243667e-06
9.225078002e-06
9.639155683e-06
8.583324173e-06
8.882069558e-06
8.08587399e-06
7.541408252e-06
9.099821234e-06
7.42364105e-06
6.707240116e-06
6.585921291e-06
7.665083588e-06
7.536094732e-06
7.325357913e-06
7.171599703e-06
5.756764534e-06
5.583531876e-06
4.328154181e-06
4.322292212e-06
4.315650235e-06
4.32798288e-06
4.285677777e-06
4.269953479e-06
4.298439159e-06
5.033445078e-06
4.294393389e-06
5.005473048e-06
3.266723833e-06
2.956303827e-06
2.873097969e-06
2.973126066e-06
3.064129936e-06
3.062703173e-06
2.888479416e-06
3.120399581e-06
3.1971306e-06
2.685771082e-06
2.726196537e-06
3.020271563e-06
2.565097326e-06
3.142405162e-06
3.11078596e-06
3.056592715e-06
2.983050214e-06
3.578407265e-06
3.469086015e-06
3.343084023e-06
3.591825302e-06
3.618499648e-06
2.787292804e-06
2.33455665e-06
2.396425321e-06
2.360261236e-06
7.709672521e-06
7.972570847e-06
7.274888907e-06
7.450878322e-06
6.924611101e-06
6.528250756e-06
7.412851736e-06
6.065511419e-06
5.550190271e-06
5.485922106e-06
6.402206159e-06
6.326654782e-06
6.17784948e-06
6.094338451e-06
4.908776466e-06
4.791647475e-06
3.646064441e-06
3.642587818e-06
3.642935768e-06
3.646218824e-06
3.618985081e-06
3.614763958e-06
3.631579628e-06
4.263825622e-06
3.622759693e-06
4.251713471e-06
2.746497386e-06
2.519716574e-06
2.619749601e-06
2.599548693e-06
2.420197036e-06
2.609581515e-06
2.700973678e-06
2.267427059e-06
2.316144911e-06
2.52513823e-06
2.648482109e-06
2.602561644e-06
2.585030555e-06
2.535319804e-06
3.044344271e-06
2.960232381e-06
2.775833495e-06
3.040844705e-06
3.07516527e-06
2.31450429e-06
6.442923885e-06
6.601879632e-06
6.156475022e-06
6.24904437e-06
5.909933678e-06
5.619156498e-06
6.059430625e-06
4.970722993e-06
4.59618012e-06
4.569136234e-06
5.345957216e-06
5.306930216e-06
5.203381962e-06
5.167032528e-06
4.176724504e-06
4.096805561e-06
3.068217112e-06
3.066965784e-06
3.071773242e-06
3.068754883e-06
3.053319147e-06
3.056814898e-06
3.065567174e-06
3.607821154e-06
3.053666769e-06
3.606123333e-06
2.234209179e-06
2.203436155e-06
2.182114922e-06
2.279160497e-06
2.229976751e-06
2.176972217e-06
2.183717332e-06
2.150549607e-06
2.585730249e-06
2.519678682e-06
2.307271058e-06
2.572056419e-06
2.609688282e-06
5.384114992e-06
5.47227166e-06
5.203407188e-06
5.240195224e-06
5.02997523e-06
4.814775246e-06
4.967928972e-06
4.084092488e-06
3.808543971e-06
3.80520643e-06
4.462975162e-06
4.448520211e-06
4.377959634e-06
4.372595965e-06
3.547565998e-06
3.492179206e-06
2.579688746e-06
2.580349324e-06
2.587850586e-06
2.580592117e-06
2.574187642e-06
2.58267473e-06
2.58593773e-06
3.049894116e-06
2.572221298e-06
3.05481384e-06
2.193212323e-06
2.140275614e-06
2.173900676e-06
2.212048181e-06
4.499172204e-06
4.539738818e-06
4.393266297e-06
4.393611478e-06
4.271351542e-06
4.110517138e-06
4.083556471e-06
3.363076837e-06
3.157544075e-06
3.168756696e-06
3.725147447e-06
3.726846217e-06
3.680234262e-06
3.694582885e-06
3.00877739e-06
2.969475919e-06
2.167370319e-06
2.169572562e-06
2.178546911e-06
2.168582068e-06
2.168922404e-06
2.180450941e-06
2.180059666e-06
2.576240301e-06
2.165454054e-06
2.585153267e-06
3.759584679e-06
3.768773752e-06
3.706024786e-06
3.683378218e-06
3.620402758e-06
3.498908156e-06
3.364056366e-06
2.774620514e-06
2.618973219e-06
2.638588007e-06
3.108825021e-06
3.120776141e-06
3.09145128e-06
3.117716441e-06
2.548727003e-06
2.519929539e-06
2.174735378e-06
2.185845584e-06
3.141506522e-06
3.130592139e-06
3.124019757e-06
3.08766589e-06
3.063958679e-06
2.971129835e-06
2.776580732e-06
2.292843626e-06
2.173065437e-06
2.19700554e-06
2.594145128e-06
2.612243686e-06
2.595294555e-06
2.628139886e-06
2.156844236e-06
2.134897789e-06
2.624995083e-06
2.601773203e-06
2.631821513e-06
2.588098872e-06
2.589756388e-06
2.517984226e-06
2.295398698e-06
2.164448525e-06
2.185864122e-06
2.177674215e-06
2.213499118e-06
2.193373358e-06
2.163187875e-06
2.216051182e-06
2.16922241e-06
2.186648972e-06
2.130487228e-06
0.0002607767913
0.0002692655151
0.0002470139277
0.0002646653952
0.000280497035
0.0002531783355
0.0002593707219
0.0002627836522
0.0002746067262
0.0002915744151
7.745877371e-05
7.659482163e-05
8.483087148e-05
7.837095158e-05
8.119102545e-05
8.018410845e-05
8.136888258e-05
0.0002616131678
8.948866724e-05
8.620624334e-05
0.000285403215
0.0003034351365
8.694170653e-05
7.865346858e-05
7.985221121e-05
8.224086113e-05
8.125404799e-05
0.0002815930802
0.0002810107394
8.150957498e-05
8.652018072e-05
0.000299315296
0.0003159646112
2.625773951e-05
2.532015239e-05
2.464224306e-05
2.530726643e-05
2.428876462e-05
2.634862713e-05
2.442734482e-05
2.700036463e-05
7.773400668e-05
2.65768948e-05
2.720741714e-05
0.00026832027
0.0002935460884
8.522346969e-05
8.635802106e-05
8.584914682e-05
8.650439645e-05
0.0003124069754
0.0003288975326
2.623674278e-05
2.494163826e-05
2.341667588e-05
2.382512375e-05
2.560065402e-05
2.349774396e-05
2.620787389e-05
2.435280523e-05
2.566601204e-05
2.502735875e-05
0.0002892310096
0.0002899409804
0.0003106144557
8.417928257e-05
8.602569897e-05
2.592705579e-05
2.548440557e-05
8.208913103e-05
0.000325222514
0.000343543962
2.24769343e-05
2.563669735e-05
2.355655329e-05
2.325331154e-05
2.049290022e-05
1.48269913e-05
2.305034959e-05
2.580062481e-05
2.627054478e-05
2.243584721e-05
0.0002766838501
8.575010672e-05
8.805978926e-05
0.0003033236074
0.0003219987837
9.674802803e-05
2.882412165e-05
2.836777247e-05
2.385539088e-05
2.515338636e-05
2.757700737e-05
2.528122104e-05
0.0003383721299
0.0003534144852
2.06734283e-05
2.322704258e-05
1.492231806e-05
1.158449735e-05
1.442898484e-05
1.186244034e-05
1.098223258e-05
1.138529454e-05
1.506448718e-05
2.581529196e-05
2.05779885e-05
0.0002985735736
0.0003006101511
9.274012641e-05
8.751370352e-05
0.000334127042
0.0003309116339
2.764298518e-05
2.810441688e-05
2.751919411e-05
2.661145904e-05
2.370116064e-05
2.455606501e-05
2.470287648e-05
2.661471666e-05
0.0003655508087
0.0003614618688
1.151463938e-05
1.45951066e-05
1.106099615e-05
1.198030227e-05
9.230373789e-06
1.020845142e-05
1.160451647e-05
9.777790173e-06
9.215921356e-06
1.020396961e-05
9.31163643e-06
1.20469238e-05
1.107905958e-05
1.50352635e-05
1.462226889e-05
0.0002872825974
0.0003035573852
9.1826328e-05
8.942045727e-05
2.861368045e-05
2.786550653e-05
2.91814824e-05
0.0001014886525
0.0003195154949
0.0003358000986
2.860194919e-05
2.614591076e-05
2.399045727e-05
1.181276781e-05
2.112529229e-05
2.428894938e-05
1.54230019e-05
0.0003498766759
0.0003751786189
9.34787796e-06
1.031655208e-05
1.172526244e-05
9.281967969e-06
9.856673945e-06
7.990317324e-06
8.654271837e-06
9.378292719e-06
8.073876951e-06
7.729611153e-06
8.633425103e-06
8.023048904e-06
9.917229244e-06
9.294071373e-06
1.121985748e-05
1.204632836e-05
1.17236624e-05
0.0003159000525
0.0003019595176
0.000998190371
9.103208223e-05
9.718336367e-05
2.751146497e-05
3.084170978e-05
2.852128911e-05
2.893789812e-05
2.785918517e-05
0.0003169612039
0.001048962934
2.801940384e-05
2.629582647e-05
2.206906144e-05
9.423767937e-06
1.03358694e-05
1.481741007e-05
1.200444645e-05
1.21740831e-05
1.138422907e-05
0.0003510357183
0.001040068469
8.0792561e-06
8.730859275e-06
9.466323002e-06
7.781354832e-06
8.12419731e-06
6.871666077e-06
7.318943027e-06
7.611701106e-06
6.677023341e-06
6.480160788e-06
7.29371602e-06
6.878833962e-06
8.178801377e-06
7.790779381e-06
9.384862227e-06
9.891772711e-06
9.449579249e-06
0.0003228756117
9.539717868e-05
9.964901352e-05
0.0003191867958
0.0009295344161
0.000318010766
0.0001057391225
2.797401003e-05
2.802907247e-05
2.934139847e-05
2.417625511e-05
1.894009063e-05
3.203361389e-05
2.929310318e-05
0.000982952708
1.640379776e-05
1.323850384e-05
1.550552474e-05
8.106366746e-06
8.738884251e-06
1.185282179e-05
1.055374119e-05
9.75766073e-06
9.978545208e-06
9.488609474e-06
6.940561001e-06
7.374726411e-06
7.676023698e-06
6.518002505e-06
6.706550962e-06
5.879103756e-06
6.177409871e-06
6.201129413e-06
5.528954728e-06
5.430690844e-06
6.154311318e-06
5.874572551e-06
6.755479698e-06
6.526551868e-06
7.848337466e-06
8.141475603e-06
7.652722598e-06
0.0003354954051
0.0001059157056
9.833440175e-05
0.0003188913175
0.001048066703
0.001013393461
0.0003326985489
3.097066275e-05
2.921548749e-05
2.854539031e-05
3.119614607e-05
2.960604428e-05
1.700799951e-05
1.420518178e-05
1.37152303e-05
1.76300026e-05
1.74504343e-05
1.226132e-05
1.29262217e-05
1.137933104e-05
1.058617213e-05
1.233888269e-05
6.937756079e-06
7.375716693e-06
9.533047838e-06
8.862615206e-06
8.345757761e-06
8.199685611e-06
7.911961191e-06
5.933725315e-06
6.219431898e-06
6.248195616e-06
5.456063404e-06
5.543502699e-06
5.009162385e-06
5.20546886e-06
5.06849074e-06
4.583283964e-06
4.549796223e-06
5.187610289e-06
5.000953365e-06
5.587121517e-06
5.464632319e-06
6.562232369e-06
6.714224807e-06
6.223527773e-06
0.000106027996
0.0001018699209
3.141930147e-05
3.049225104e-05
3.183058241e-05
0.0001143100389
0.0003565890119
0.0003490605441
0.0009908283485
0.0003528883163
0.0003553146846
3.240395825e-05
3.129732628e-05
1.752334771e-05
1.773387324e-05
1.33399282e-05
1.13935605e-05
1.109844954e-05
1.297345013e-05
1.303304108e-05
1.305718367e-05
1.283576082e-05
1.012140245e-05
1.051911383e-05
9.493982133e-06
8.950462077e-06
9.876358263e-06
5.91352426e-06
6.216229159e-06
7.704586542e-06
7.438946753e-06
7.110195135e-06
6.752578451e-06
6.599620697e-06
5.053429544e-06
5.238321477e-06
5.102940032e-06
4.564573756e-06
4.58719751e-06
4.253768964e-06
4.380602253e-06
4.154442203e-06
3.802863937e-06
3.810820857e-06
4.369061555e-06
4.246226661e-06
4.625920064e-06
4.573519114e-06
5.486085258e-06
5.546575885e-06
5.079856738e-06
0.0001097365448
0.0001087261185
3.561923807e-05
2.969095544e-05
3.265430357e-05
3.509468361e-05
3.315379693e-05
0.0001155878319
0.0001197381681
0.0003557856793
0.001060455742
0.0003753765979
0.0003593071055
1.816303929e-05
2.00314536e-05
1.284133065e-05
1.311149936e-05
1.319244799e-05
1.292331654e-05
1.053421344e-05
9.175613894e-06
9.007466806e-06
1.056131387e-05
1.061950749e-05
1.065114243e-05
1.049018712e-05
8.363156661e-06
8.585751628e-06
7.915582677e-06
7.541839111e-06
7.946700173e-06
5.024017413e-06
5.232801529e-06
6.253603106e-06
6.241511727e-06
6.038406271e-06
5.571174945e-06
5.506586483e-06
4.290358049e-06
4.407258172e-06
4.179633179e-06
3.81696943e-06
3.799389306e-06
3.602563682e-06
3.6823933e-06
3.413504332e-06
3.157784731e-06
3.191191863e-06
3.677091406e-06
3.597767055e-06
3.833641248e-06
3.826345481e-06
4.585860287e-06
4.5885935e-06
4.159627665e-06
0.0001150378765
3.645202824e-05
0.0001076345905
2.702026807e-05
3.157727255e-05
3.372494482e-05
3.317049766e-05
0.0001170844677
0.0001255388878
0.0003600252261
0.001117099781
0.0003552975672
0.0003475781406
1.344519995e-05
1.30030504e-05
1.517494551e-05
1.395433364e-05
1.051332131e-05
1.069782825e-05
1.077562111e-05
1.058288178e-05
8.369534314e-06
7.415278165e-06
7.328783993e-06
8.616644597e-06
8.670682746e-06
8.703003907e-06
8.585619792e-06
6.916035535e-06
7.025618544e-06
6.595871787e-06
6.337565198e-06
6.423761988e-06
4.256983319e-06
4.400635323e-06
5.095009289e-06
5.235110875e-06
5.115018652e-06
4.603720174e-06
4.595721892e-06
3.633317405e-06
3.704762204e-06
3.431879722e-06
3.190576483e-06
3.149339981e-06
3.044354883e-06
3.092658906e-06
2.81053836e-06
2.62384931e-06
2.67183902e-06
3.092910671e-06
3.043037463e-06
3.179543927e-06
3.20028108e-06
3.832967757e-06
3.800704737e-06
3.415536174e-06
0.000113769924
3.443313864e-05
3.211632113e-05
3.347245662e-05
3.634415724e-05
1.582893395e-05
1.854411014e-05
2.582655004e-05
2.939918523e-05
3.17825006e-05
0.0001164138048
0.0001253038436
0.0003592708776
0.0003462273817
0.0003727107415
0.0001249370749
1.085010912e-05
1.064997011e-05
1.206992272e-05
1.128473022e-05
8.616390872e-06
8.742663271e-06
8.813981451e-06
8.675019793e-06
6.685817699e-06
6.010563937e-06
5.975604596e-06
7.043151979e-06
7.091734978e-06
7.121163759e-06
7.03532759e-06
5.723261861e-06
5.761491231e-06
5.493627967e-06
5.313831188e-06
5.213878369e-06
3.599247977e-06
3.697803066e-06
4.16467378e-06
4.389786954e-06
4.323757458e-06
3.809358887e-06
3.836323864e-06
3.07055661e-06
3.111956601e-06
2.823882846e-06
2.666120135e-06
2.612223309e-06
2.568018601e-06
2.59541821e-06
2.318173579e-06
2.181399164e-06
2.236679835e-06
2.600278546e-06
2.570154949e-06
2.638786159e-06
2.675986984e-06
3.203413076e-06
3.151351057e-06
2.811235025e-06
0.0001079797705
3.770717335e-05
3.276562954e-05
2.991208792e-05
3.344675166e-05
1.192248217e-05
1.386562529e-05
1.441565657e-05
1.592449287e-05
1.752301403e-05
3.196887702e-05
0.0001132020525
0.0001113018811
0.0001150382175
8.784379595e-06
8.731434112e-06
9.645357335e-06
9.15003101e-06
7.06789682e-06
7.154548491e-06
7.217953764e-06
7.117056415e-06
5.366313147e-06
4.884309125e-06
4.880980362e-06
5.766019802e-06
5.808739916e-06
5.833665322e-06
5.770779846e-06
4.738931345e-06
4.733549314e-06
4.573820311e-06
4.447469094e-06
4.246924586e-06
3.037744094e-06
3.105130858e-06
3.413862155e-06
3.680125336e-06
3.648626608e-06
3.155635187e-06
3.20296724e-06
2.590577616e-06
2.612417091e-06
2.327800859e-06
2.227277561e-06
2.167908414e-06
2.163015706e-06
2.176768608e-06
2.185230486e-06
2.168190476e-06
2.191209828e-06
2.237123083e-06
2.677072585e-06
2.615214771e-06
2.318576034e-06
0.0001050491553
3.725218567e-05
3.676356812e-05
2.953779232e-05
2.741374679e-05
2.842003215e-05
3.301129592e-05
9.94902925e-06
1.124695865e-05
1.128903547e-05
1.45979487e-05
1.190350463e-05
1.381952051e-05
0.0001115949908
0.0001108204767
7.13164709e-06
7.164469766e-06
7.73905251e-06
7.435734923e-06
5.801901504e-06
5.861566974e-06
5.916746342e-06
5.842950581e-06
4.325115669e-06
3.97759491e-06
3.992848138e-06
4.726674292e-06
4.763644064e-06
4.783615778e-06
4.737498169e-06
3.925784752e-06
3.895086208e-06
3.806807006e-06
3.716912257e-06
3.4699526e-06
2.560102011e-06
2.605993871e-06
2.805221515e-06
3.084607344e-06
3.074569919e-06
2.616597224e-06
2.674564233e-06
2.182589163e-06
2.191957554e-06
2.23708188e-06
2.171883162e-06
0.0001032701995
3.551725727e-05
3.606016595e-05
3.249196729e-05
2.928441993e-05
2.504329227e-05
2.30106415e-05
2.162239316e-05
8.284792088e-06
9.148815098e-06
8.899165052e-06
1.178716955e-05
9.970892582e-06
1.096927701e-05
0.0001093765091
5.803464181e-06
5.882784609e-06
6.231013302e-06
6.053969188e-06
4.765542313e-06
4.806801618e-06
4.854080636e-06
4.799706676e-06
3.498431505e-06
3.24503985e-06
3.270413626e-06
3.878935027e-06
3.910550198e-06
3.925765232e-06
3.891943342e-06
3.253473485e-06
3.209367145e-06
3.167585842e-06
3.102642588e-06
2.842638021e-06
2.154971999e-06
2.186076713e-06
2.309894208e-06
2.585052102e-06
2.587819465e-06
2.171387125e-06
2.233605845e-06
3.491449649e-05
3.455720296e-05
3.126330814e-05
3.191064616e-05
2.912766373e-05
2.351141386e-05
2.041878023e-05
1.985222394e-05
1.669886763e-05
6.887218445e-06
7.460099939e-06
7.056461348e-06
9.556653731e-06
8.343406628e-06
8.757532076e-06
3.104131308e-05
3.205922581e-05
4.731994106e-06
4.833161196e-06
5.031583679e-06
4.936720524e-06
3.916260554e-06
3.944942167e-06
3.984980135e-06
3.944618129e-06
2.838449154e-06
2.651399374e-06
2.681492009e-06
3.186160623e-06
3.212952497e-06
3.223932759e-06
3.199156395e-06
2.697203826e-06
2.647299129e-06
2.635127095e-06
2.587350881e-06
2.334013832e-06
2.166117816e-06
2.176036035e-06
3.057088071e-05
2.97067852e-05
2.773321545e-05
2.868278246e-05
2.78090953e-05
1.819341361e-05
1.777927394e-05
1.560836445e-05
1.300084726e-05
5.717507501e-06
6.09556127e-06
5.624133733e-06
7.775921084e-06
6.975611007e-06
7.027887339e-06
2.937008518e-05
2.923030048e-05
3.864766961e-06
3.97270751e-06
4.073124367e-06
4.030937376e-06
3.219666596e-06
3.239732302e-06
3.273333156e-06
3.243152095e-06
2.308998891e-06
2.169094667e-06
2.20053691e-06
2.619116936e-06
2.641663014e-06
2.649057252e-06
2.630953777e-06
2.236669343e-06
2.185700465e-06
2.19177922e-06
2.155903225e-06
2.652770853e-05
2.600301369e-05
2.409991895e-05
2.749798923e-05
1.356772458e-05
1.50914858e-05
1.42326604e-05
1.235286905e-05
1.019752397e-05
4.74113232e-06
4.989222617e-06
4.50256631e-06
6.346568017e-06
5.827947441e-06
5.66550155e-06
2.626992042e-05
2.596436655e-05
3.160877102e-06
3.266731247e-06
3.30411776e-06
3.294937371e-06
2.647885566e-06
2.662031354e-06
2.690030408e-06
2.667302039e-06
2.154360982e-06
2.17322872e-06
2.177703965e-06
2.164531184e-06
2.328307897e-05
2.304532318e-05
2.174180931e-05
2.171905195e-05
1.349721353e-05
1.083266439e-05
1.231206587e-05
1.14522809e-05
9.834312196e-06
8.053206207e-06
3.927897107e-06
4.089615623e-06
3.618505516e-06
5.193733929e-06
4.866274945e-06
4.585327621e-06
2.242407134e-05
2.306975179e-05
2.588197895e-06
2.687091256e-06
2.684978923e-06
2.695761583e-06
2.178267226e-06
2.188329962e-06
2.211528183e-06
2.194295449e-06
2.158830511e-05
2.155258602e-05
1.700121929e-05
1.683578626e-05
1.10449954e-05
9.318420624e-06
1.008046454e-05
9.2570902e-06
7.870331158e-06
6.398762938e-06
3.251723414e-06
3.356298194e-06
2.917556428e-06
4.259982967e-06
4.061338254e-06
3.723827056e-06
2.192011076e-05
2.151591349e-05
2.121333221e-06
2.210901283e-06
2.185033564e-06
2.207200062e-06
1.705193147e-05
1.714783941e-05
1.338314149e-05
1.315242412e-05
9.063992086e-06
7.979752943e-06
8.279112731e-06
7.512597274e-06
6.327537679e-06
5.111861235e-06
2.690308387e-06
2.757278463e-06
2.358925577e-06
3.500883377e-06
3.388201957e-06
3.033101662e-06
1.738077782e-05
1.71774533e-05
1.353848735e-05
1.369550803e-05
1.059734088e-05
1.034857555e-05
7.456543853e-06
6.808622659e-06
6.818068124e-06
6.118059546e-06
5.107486495e-06
4.103287771e-06
2.224711669e-06
2.267094742e-06
2.881789622e-06
2.825704354e-06
2.476719619e-06
1.383039707e-05
1.375454441e-05
1.079688698e-05
1.097359256e-05
8.434816484e-06
8.195269322e-06
6.147101303e-06
5.792292142e-06
5.627975012e-06
4.997355385e-06
4.136866776e-06
3.307393913e-06
2.375486108e-06
2.355950335e-06
1.103792411e-05
1.104103588e-05
8.643252713e-06
8.816512791e-06
6.743624166e-06
6.527616108e-06
5.076757891e-06
4.915850738e-06
4.654932592e-06
4.092476688e-06
3.360567283e-06
2.67543277e-06
8.83101621e-06
8.881124072e-06
6.941524362e-06
7.099505314e-06
5.412209355e-06
5.22591199e-06
4.199247471e-06
4.163824318e-06
3.856730728e-06
3.358839281e-06
2.736780685e-06
7.07978055e-06
7.15593322e-06
5.589986575e-06
5.727654392e-06
4.357849228e-06
4.202500042e-06
3.477974274e-06
3.521136555e-06
3.200076693e-06
2.761894244e-06
5.685377935e-06
5.773980774e-06
4.511841348e-06
4.628099527e-06
3.518584986e-06
3.392608026e-06
2.883805801e-06
2.973671378e-06
2.658529594e-06
4.571923857e-06
4.664301465e-06
3.648547764e-06
3.744446047e-06
2.847551995e-06
2.747926985e-06
2.393412379e-06
2.508549122e-06
3.680700513e-06
3.771464771e-06
2.95508566e-06
3.032725249e-06
2.96595583e-06
3.051907565e-06
0.0002446657401
0.0002484385988
0.0002582621549
0.0002423710628
0.0002513591498
8.495604336e-05
0.000265806603
0.0002649504462
7.601127699e-05
0.0002369524619