/*--------------------------------*- C++ -*----------------------------------*\
  =========                 |
  \\      /  F ield         | OpenFOAM: The Open Source CFD Toolbox
   \\    /   O peration     | Website:  https://openfoam.org
    \\  /    A nd           | Version:  8
     \\/     M anipulation  |
\*---------------------------------------------------------------------------*/






FoamFile
{
    version     2.0;
    format      ascii;
    class       volScalarField;
    location    "0";
    object      pDDES;
}
// * * * * * * * * * * * * * * * * * * * * * * * * * * * * * * * * * * * * * //

dimensions      [0 2 -2 0 0 0 0];


internalField   nonuniform List<scalar> 
20307
(
0.0002473809
0.0002445641439
0.0002464574936
0.0002427329891
0.0002400235244
0.000245500356
0.0002487699385
0.0002446562867
0.0002408226283
0.0002384816908
0.0002359229838
0.0002477256639
0.0002498752438
0.0002502057469
0.0002436258656
0.0002469223982
0.000238989669
0.0002364062093
0.0002427678701
0.0002325210517
0.0002493045176
0.0002489461913
0.000251145626
0.0002515788656
0.0002458900854
0.0002480117837
0.0002483670251
0.0002410601883
0.0002372014278
0.0002349172428
0.0002418651129
0.0002451088221
0.0002292753925
0.000250655401
0.0002502149146
0.0002522561117
0.0002526340249
0.0002474683279
0.000247130869
0.0002492977947
0.0002497361274
0.0002401046222
0.0002433789632
0.000235565094
0.0002329665149
0.0002392696042
0.0002440916724
0.0002462186967
0.000246564945
0.0002262613707
0.000231625716
0.0002517045941
0.0002513338113
0.0002530188649
0.0002534881642
0.0002488383325
0.0002484139404
0.0002504359582
0.0002508019097
0.0002423763799
0.0002444780839
0.0002447986044
0.0002376170014
0.000234088875
0.0002384075196
0.0002416520292
0.0002456723014
0.0002453203779
0.0002475219662
0.0002479462128
0.0002287043608
0.0002299577754
0.0002232594998
0.0002525646705
0.0002521036658
0.0002536648826
0.0002541271388
0.0002499056282
0.000249548757
0.0002512081701
0.0002516623645
0.0002439600503
0.0002436327486
0.0002457911323
0.0002461894474
0.0002367776469
0.0002399990772
0.0002326184767
0.0002359953942
0.0002406894782
0.0002427906438
0.00024310757
0.0002470515901
0.0002466186415
0.0002486743906
0.0002490277402
0.0002269246179
0.0002205302153
0.0002257125452
0.000253207254
0.0002527537872
0.0002541627618
0.00025462138
0.0002507718746
0.0002503244323
0.0002518602996
0.0002523071598
0.0002453443303
0.0002449510794
0.0002469432075
0.0002472937922
0.000239062967
0.0002411584719
0.0002414532646
0.0002345055982
0.0002352217853
0.0002310483396
0.0002383533283
0.0002422774705
0.0002419724769
0.0002441194956
0.0002445144637
0.0002481555275
0.0002477890812
0.0002494560322
0.0002498966351
0.0002178024733
0.0002231326071
0.00022421022
0.000229534664
0.000253707607
0.0002532560029
0.000254508428
0.0002549644851
0.0002514243824
0.000250984187
0.0002523684234
0.0002528092009
0.0002464416029
0.0002461071417
0.0002477464732
0.0002481792762
0.0002406689746
0.0002403600229
0.0002425007842
0.0002428930165
0.0002368199639
0.0002336608886
0.0002374678152
0.0002329249255
0.0002395456249
0.0002398557699
0.0002437081566
0.0002433098271
0.0002452878107
0.0002456193906
0.0002490320476
0.0002485934237
0.0002501196577
0.0002505520242
0.0002151256194
0.0002201977477
0.0002215432905
0.0002267972595
0.0002281450434
0.0002314503508
0.0002321403153
0.0002540537098
0.0002536041429
0.0002547278709
0.0002551822981
0.0002519282571
0.0002514955704
0.0002527192992
0.0002531595528
0.0002473288623
0.0002469119499
0.0002484218567
0.0002488441824
0.0002420885285
0.000241712245
0.0002436741779
0.0002439923119
0.0002380193328
0.0002383094688
0.0002359406062
0.0002390731097
0.0002387878776
0.0002352954762
0.0002409246808
0.000241302434
0.000244801864
0.0002444866986
0.0002460888936
0.0002465068246
0.0002496906673
0.0002492664498
0.0002506338642
0.0002510628547
0.0002185588819
0.0002124955354
0.0002173932153
0.0002240253962
0.0002254680439
0.0002286384115
0.0002292866848
0.0002306743263
0.000230002508
0.0002338331542
0.0002344531968
0.0002542745206
0.0002538235276
0.0002548540069
0.0002553083468
0.000252281141
0.0002518476977
0.0002529427875
0.0002533818188
0.0002480038675
0.0002475877118
0.000248944707
0.0002493649372
0.0002432145993
0.0002429010638
0.000244495779
0.0002448925807
0.0002394168259
0.0002375668118
0.0002397794451
0.000237283748
0.0002405274718
0.0002401673264
0.0002365392866
0.0002368180139
0.0002421306999
0.0002424481645
0.0002456949442
0.0002452892077
0.0002467710583
0.0002471783955
0.0002502089774
0.0002497844398
0.000250991463
0.0002514182706
0.0002226437209
0.000215857639
0.0002099007397
0.000214716667
0.0002213302942
0.0002258911263
0.000226526914
0.0002279065957
0.0002272506536
0.0002310117561
0.0002316270547
0.0002330094576
0.0002323876688
0.0002350957366
0.0002353716845
0.0002361000224
0.0002358229976
0.0002544019371
0.0002539521665
0.0002549179771
0.0002553722879
0.0002525044547
0.0002520737471
0.0002530736092
0.0002535103704
0.0002485278819
0.0002481162664
0.0002493099601
0.0002497268433
0.0002441168035
0.0002437265648
0.000245187548
0.0002455801587
0.0002406369167
0.0002390343871
0.0002409348235
0.0002386836859
0.0002416743519
0.0002413723851
0.0002379605721
0.000238306573
0.0002429694432
0.0002433524351
0.000246370415
0.0002459706739
0.000247302145
0.0002477065718
0.0002505675948
0.0002501458512
0.0002512181527
0.0002516439126
0.0002245748328
0.0002251765982
0.0002199973969
0.0002074234217
0.0002132010122
0.0002121070138
0.0002187519858
0.0002239015594
0.0002233088599
0.0002283347421
0.0002288928954
0.0002302398934
0.0002296587336
0.0002323255321
0.0002325917158
0.0002332984732
0.0002330283751
0.0002346640686
0.0002343984816
0.000233696599
0.0002339609928
0.0002365494875
0.0002368853602
0.0002375927725
0.0002372497402
0.0002544666058
0.0002540180867
0.0002549445198
0.0002553992672
0.0002526344033
0.0002522038994
0.0002531390055
0.0002535762906
0.0002488942409
0.0002484840807
0.0002495424706
0.0002499576076
0.00024480297
0.0002444190904
0.0002457252704
0.0002461111289
0.0002414883929
0.0002401993988
0.0002418619406
0.0002399116202
0.0002425959829
0.0002422193793
0.0002391982998
0.00023948116
0.0002436665236
0.0002440420358
0.0002468992025
0.0002465047583
0.0002476717927
0.0002480764524
0.0002507955942
0.0002503737633
0.000251348305
0.0002517757239
0.0002270202967
0.0002275875449
0.0002225713251
0.0002219712042
0.0002051607444
0.0002096396056
0.000210711718
0.0002174972906
0.0002162463061
0.0002213534026
0.0002207990037
0.000226349599
0.0002257842134
0.0002297027095
0.0002299485059
0.000230604739
0.0002303553338
0.0002319215564
0.000231670434
0.0002310017153
0.0002312544384
0.0002338376944
0.0002341605141
0.000234844978
0.0002345204703
0.0002361897496
0.0002358625497
0.0002351790317
0.00023550076
0.0002378162753
0.0002380918886
0.0002387819841
0.0002385002008
0.0002544936433
0.0002540458809
0.0002549521159
0.0002554071252
0.0002527004981
0.0002522695868
0.0002531667706
0.0002536035026
0.0002491278283
0.0002487186866
0.0002496781817
0.00025009198
0.0002453400812
0.0002449589083
0.0002460979158
0.0002464849968
0.0002411362948
0.0002422002144
0.0002425627754
0.000240770547
0.0002432948677
0.000242926646
0.0002400653757
0.0002404262341
0.000244207069
0.0002445828286
0.0002472723718
0.0002468742023
0.0002479087852
0.0002483122807
0.0002509280748
0.0002505073207
0.0002514149237
0.0002518424008
0.0002284271759
0.0002286641393
0.0002293136931
0.0002290692646
0.0002250740217
0.0002245158103
0.0002032310877
0.0002082778665
0.0002072415082
0.0002137824195
0.0002150126675
0.0002195673005
0.0002201370517
0.0002183400211
0.0002189133957
0.0002238599263
0.0002233195992
0.000228072633
0.0002278298925
0.0002272001584
0.0002274398139
0.0002312672732
0.0002315681195
0.0002322054497
0.0002319006016
0.0002334968594
0.0002331878932
0.0002325416717
0.000232849241
0.0002351539733
0.0002354195167
0.0002360805811
0.0002358062338
0.0002374092146
0.0002371362207
0.000236459804
0.0002367365814
0.0002386998094
0.0002390440495
0.0002397272619
0.0002393781033
0.0002545015013
0.0002540538553
0.0002549515048
0.0002554068342
0.0002527284669
0.0002522973809
0.0002531745995
0.0002536116517
0.0002492631902
0.000248854456
0.000249747507
0.0002501606359
0.0002457143273
0.0002453360648
0.0002463358396
0.0002467220183
0.0002418429649
0.0002427512372
0.0002431097819
0.0002414893097
0.0002438382653
0.0002434705966
0.0002407902211
0.0002411396417
0.000244587136
0.0002449583262
0.0002475089277
0.0002471139596
0.0002480455732
0.0002484496217
0.0002509956539
0.0002505764714
0.0002514431253
0.0002518705733
0.0002300075139
0.0002303093206
0.0002309395059
0.0002306396054
0.0002268253593
0.0002265875664
0.0002259705216
0.0002262041235
0.0002049650211
0.0002060121187
0.0002125753235
0.0002113955852
0.0002159244177
0.0002164927573
0.0002171458909
0.0002177162969
0.0002221219038
0.0002226380457
0.000220936301
0.0002214415144
0.0002256282896
0.0002253928105
0.0002247742377
0.000225003896
0.0002297058818
0.0002294083242
0.0002288098331
0.0002290869161
0.0002326265239
0.0002328760165
0.0002335018653
0.0002332493023
0.0002347714617
0.0002345134417
0.0002338808408
0.000234134015
0.0002360791987
0.0002364044776
0.0002370492439
0.0002367199049
0.0002383694227
0.0002380302758
0.0002373691677
0.0002377054334
0.0002394341573
0.0002397697535
0.0002404482366
0.0002401054517
0.0002545010357
0.0002540543792
0.0002549492056
0.0002554049424
0.0002527373435
0.0002523055591
0.0002531752398
0.0002536116517
0.0002493322827
0.0002489236067
0.0002497767273
0.0002501893032
0.0002459541138
0.0002455747745
0.0002464745194
0.0002468617749
0.0002423940896
0.0002431338653
0.000243490329
0.0002420426754
0.0002442161494
0.0002438509546
0.0002413500333
0.0002416934585
0.0002448285231
0.000245199597
0.0002476474619
0.0002472526103
0.0002481155389
0.0002485195582
0.0002510236227
0.0002506055462
0.0002514518565
0.0002518791007
0.0002313938166
0.0002316466125
0.0002322566434
0.0002320090862
0.0002284896327
0.0002282005444
0.0002275872685
0.0002278731699
0.000208995727
0.0002102205181
0.0002153104288
0.0002147497726
0.0002135709656
0.0002141323494
0.0002185901976
0.0002190873201
0.0002197579597
0.0002202567703
0.0002235890133
0.000223814015
0.0002244179195
0.0002241880575
0.0002224224299
0.0002226428478
0.0002232314873
0.0002230096288
0.0002273007121
0.0002270187542
0.000226424585
0.0002267086966
0.0002310455602
0.0002307840332
0.0002301976492
0.0002304355585
0.0002335862955
0.0002338990889
0.0002345164103
0.0002342011139
0.0002357680933
0.0002354467288
0.0002348220733
0.0002351403818
0.0002368424612
0.0002371595328
0.0002377989294
0.0002374764299
0.0002391021408
0.0002387730055
0.0002381198137
0.000238445733
0.0002400018275
0.0002403350809
0.0002410064189
0.0002406697313
0.0002544991439
0.0002540525747
0.0002527377801
0.0002523060539
0.0002531731443
0.0002536106622
0.0002493622305
0.0002489530598
0.0002497859241
0.0002501982381
0.0002460938995
0.000245716481
0.0002465459984
0.0002469333413
0.0002427789004
0.0002433785412
0.0002437338844
0.0002424275735
0.0002444605634
0.0002440943499
0.0002417362266
0.000242081107
0.0002449698222
0.0002453401103
0.0002477184171
0.0002473246423
0.0002481458068
0.0002485494188
0.0002510323247
0.0002506144519
0.0002514522348
0.0002518795081
0.0002323790104
0.0002326838148
0.0002332871663
0.0002329786803
0.000229848607
0.0002296080202
0.0002290078846
0.0002292576246
0.0002112023358
0.0002117732365
0.0002129603672
0.0002123932354
0.0002179195581
0.0002174278197
0.00021626956
0.0002167609782
0.000220126225
0.0002203443728
0.0002207032376
0.0002209238446
0.0002212707768
0.0002214885026
0.0002220710739
0.0002218520385
0.0002252569539
0.0002255349245
0.0002261230984
0.0002258391905
0.0002241103793
0.0002243840136
0.000224957068
0.0002246807853
0.0002286759845
0.0002284390648
0.0002278590255
0.0002280941117
0.0002320864005
0.0002317834442
0.0002311955905
0.0002314884623
0.0002343785745
0.0002346830734
0.0002352924203
0.0002349870483
0.0002365306864
0.0002362171508
0.0002355994802
0.0002359087521
0.0002374340547
0.0002377472993
0.0002383813699
0.0002380634251
0.00023967374
0.0002393469331
0.000238701934
0.0002390225418
0.000240398178
0.0002407286083
0.0002413975599
0.0002410620073
0.0002527365868
0.000252304686
0.0002493717184
0.0002489624894
0.0002497869427
0.0002501991403
0.0002461667755
0.0002457895025
0.0002465774887
0.0002469643077
0.0002430253953
0.000243521019
0.0002438755619
0.0002426748833
0.0002446024737
0.0002442368714
0.0002419861557
0.0002423283586
0.0002450432512
0.0002454132482
0.0002477491798
0.0002473558416
0.0002481555566
0.000248559023
0.0002510328195
0.0002506151504
0.0002514507214
0.0002518772963
0.0002331848082
0.0002334816672
0.0002340780338
0.0002337780898
0.0002309094416
0.0002306117385
0.000230031088
0.0002303271322
0.0002139431017
0.0002144387254
0.0002156052069
0.0002151120279
0.0002197770955
0.0002195583074
0.0002189780062
0.0002191969252
0.0002178373979
0.000218055342
0.0002186345082
0.0002184162149
0.0002218668524
0.0002221350442
0.000222424278
0.0002226945217
0.0002229851088
0.0002232542902
0.0002238168527
0.0002235450665
0.000226719334
0.0002269461693
0.0002275191073
0.0002272854617
0.0002255939326
0.0002258144959
0.0002263770875
0.0002261520567
0.0002297499595
0.0002294580336
0.0002288895921
0.0002291788114
0.0002328907431
0.0002325958339
0.0002320137137
0.0002323044755
0.0002349923016
0.0002352938172
0.0002358974743
0.0002355953038
0.0002371231822
0.000236814667
0.0002362006926
0.0002365055116
0.0002378449717
0.0002381575468
0.00023878715
0.0002384705585
0.0002400710509
0.0002397468779
0.0002391041053
0.0002394241019
0.0002406512795
0.0002409811132
0.0002416472853
0.0002413124457
0.0002493727952
0.0002489635954
0.0002497857204
0.0002501981508
0.0002461983531
0.0002458212839
0.0002465879079
0.0002469745232
0.0002431695902
0.000243594317
0.0002439492673
0.0002428206499
0.0002446752915
0.0002443108533
0.0002421318786
0.0002424744016
0.000245074858
0.000245445146
0.0002477592789
0.0002473657951
0.0002481564297
0.0002485601581
0.0002510305494
0.0002506134624
0.0002338091872
0.0002341022337
0.0002346947003
0.0002343976957
0.0002317250328
0.0002314380254
0.0002308648545
0.0002311522549
0.000215554217
0.0002157743002
0.0002163521422
0.0002161343
0.0002174948313
0.0002172779059
0.0002166989289
0.0002169178479
0.000221570619
0.0002213015832
0.0002207440557
0.0002210097155
0.000219622787
0.0002198924776
0.0002204501652
0.0002201833995
0.0002233870036
0.0002236074652
0.0002239337191
0.0002241553739
0.0002244865464
0.0002247049124
0.0002252583945
0.0002250357211
0.0002277667663
0.0002280517947
0.0002286126255
0.0002283255162
0.0002266600932
0.0002269409015
0.0002274945728
0.0002272082056
0.0002305834932
0.0002303015353
0.0002297404135
0.0002300214255
0.0002335165773
0.0002332260774
0.0002326472895
0.0002329361887
0.000235421292
0.000235719257
0.0002363180974
0.0002360184444
0.0002375363256
0.0002372291056
0.0002366189728
0.0002369228459
0.0002381082159
0.0002384196268
0.0002390446462
0.0002387314744
0.0002403249964
0.000240002948
0.0002393617324
0.0002396811178
0.0002407989814
0.0002411274181
0.0002417937794
0.0002414578048
0.0002493723878
0.0002489631879
0.0002462085977
0.0002458313829
0.0002465892758
0.0002469759493
0.0002432447945
0.0002436269715
0.0002439812524
0.0002428961452
0.0002447068691
0.0002443434205
0.0002422068792
0.0002425498533
0.0002450851316
0.0002454557107
0.0002477603848
0.0002473669592
0.000248155935
0.0002485587902
0.0002342444786
0.0002345356334
0.0002351244329
0.0002348303096
0.0002323628723
0.0002320778003
0.0002315135498
0.0002317952312
0.0002173815155
0.000217652545
0.0002182117169
0.0002179441508
0.0002193344408
0.0002190656087
0.0002185077756
0.0002187758073
0.0002230553946
0.0002228353696
0.000222287621
0.0002225081698
0.0002211924439
0.0002214110282
0.0002219578892
0.0002217370493
0.0002244899661
0.0002247643715
0.0002250283287
0.0002253065177
0.00022557177
0.000225848853
0.0002263929346
0.0002261126356
0.0002286348754
0.0002289089171
0.0002294628066
0.0002291847777
0.0002275448351
0.0002278144675
0.0002283595677
0.0002280855551
0.0002312329743
0.0002309570846
0.0002304026857
0.0002306797251
0.0002339534694
0.0002336649632
0.0002330916031
0.0002333775774
0.000235695552
0.0002359932696
0.0002365864057
0.0002362899249
0.0002377989294
0.0002374942706
0.0002368876449
0.0002371903975
0.0002382631646
0.0002385730622
0.0002391959424
0.0002388825524
0.0002404725965
0.0002401507663
0.0002395119809
0.0002398304932
0.0002408763394
0.0002412027534
0.0002418686199
0.0002415323106
0.0002462099364
0.0002458328381
0.0002465892176
0.0002469752217
0.0002432778419
0.0002436377108
0.0002439920936
0.0002429293818
0.0002447174338
0.0002443539561
0.0002422395046
0.0002425826096
0.0002450867614
0.0002454573696
0.0002477589878
0.0002473661152
0.0002345250687
0.0002348156413
0.0002354003664
0.0002351075964
0.0002328062837
0.0002325265959
0.0002319657069
0.0002322448272
0.0002189879742
0.0002192099346
0.0002197601279
0.0002195386915
0.0002208626829
0.0002206408099
0.0002200933814
0.0002203142212
0.0002242260671
0.0002239507157
0.0002234140411
0.0002236865985
0.000222335686
0.0002226109063
0.0002231475082
0.0002228719241
0.000225403579
0.0002256685984
0.0002259331377
0.0002262022754
0.0002264706127
0.0002267390955
0.0002272738639
0.0002270046098
0.0002293101716
0.0002295814775
0.0002301268396
0.0002298537584
0.0002282317728
0.0002284994989
0.0002290372213
0.0002287670068
0.0002316870232
0.0002314102894
0.000230863865
0.0002311364806
0.0002342336229
0.0002339468483
0.000233375511
0.0002336613543
0.0002358571801
0.0002361538936
0.000236744454
0.0002364485699
0.0002379535581
0.0002376488992
0.0002370455477
0.0002373477619
0.0002383436367
0.0002386520791
0.0002392746537
0.0002389615402
0.0002405486302
0.0002402275277
0.0002395895572
0.0002399075602
0.0002409099252
0.0002412356844
0.0002419011289
0.0002415653289
0.0002462094708
0.0002458324889
0.0002432888868
0.0002436397335
0.0002439937525
0.0002429400629
0.0002447188599
0.0002443558769
0.0002422503312
0.0002425933635
0.0002450861793
0.0002454573696
0.0002346898546
0.0002349800343
0.0002355615725
0.0002352700394
0.0002330930147
0.0002328109695
0.0002322558285
0.0002325345995
0.0002201627067
0.0002204395714
0.0002209819795
0.0002207054495
0.0002220704628
0.0002217934234
0.0002212522522
0.0002215293061
0.0002251391707
0.000224873249
0.0002243453055
0.0002246108488
0.0002232842962
0.0002235502616
0.0002240788745
0.0002238133457
0.00022611655
0.0002263784118
0.0002266403608
0.0002269037359
0.000227168639
0.0002274341241
0.000227964556
0.0002276981686
0.0002297794854
0.0002300488122
0.000230589867
0.0002303189103
0.0002287112293
0.0002289773984
0.0002295111335
0.0002292423451
0.000231977494
0.0002317021135
0.0002311597491
0.0002314304875
0.0002343986707
0.0002341105719
0.000233543833
0.000233827348
0.0002359408245
0.0002362361411
0.000236825872
0.000236530992
0.0002380338119
0.0002377282071
0.0002371277224
0.0002374280884
0.0002383780084
0.0002386864362
0.0002393088071
0.0002389961301
0.0002405821288
0.0002402611426
0.0002396234195
0.0002399413061
0.0002409211302
0.0002412470203
0.0002419122466
0.0002415764466
0.0002432908077
0.0002436398354
0.0002439939417
0.0002429417364
0.0002447185689
0.0002443549165
0.0002422525577
0.0002425951534
0.0002347750415
0.0002350638097
0.0002356451587
0.0002353543532
0.0002332597505
0.0002329793642
0.0002324250527
0.0002327013062
0.0002211412648
0.0002214108827
0.0002219459566
0.0002216773282
0.0002230169193
0.0002227489604
0.0002222141193
0.0002224836644
0.0002258550376
0.0002255944273
0.000225071155
0.0002253346902
0.0002240250615
0.0002242873161
0.0002248083183
0.0002245465876
0.000226616321
0.0002268760145
0.0002271357225
0.0002273953578
0.0002276568848
0.0002279210457
0.0002284469374
0.0002281829074
0.0002300811175
0.0002303475194
0.0002308893017
0.0002306174283
0.0002290196862
0.0002292832214
0.000229812591
0.0002295499435
0.0002321487991
0.0002318739134
0.0002313320438
0.0002316006285
0.0002344841923
0.0002341961808
0.0002336310572
0.0002339129569
0.0002359778009
0.0002362718951
0.0002368618734
0.0002365667751
0.0002380688675
0.0002377624332
0.0002371630399
0.0002374631586
0.0002383899264
0.0002386977139
0.0002393203467
0.0002390076406
0.0002405937412
0.0002402718819
0.0002396343189
0.0002399524819
0.0002409239969
0.0002412492613
0.0002419142111
0.0002415786294
0.0002432908514
0.0002429421293
0.0002422530961
0.0002425956482
0.0002348120615
0.0002351011644
0.0002356826735
0.0002353913005
0.0002333474695
0.0002330648422
0.0002325120586
0.0002327879192
0.0002219093294
0.0002221751201
0.0002227028162
0.0002224407071
0.0002237603476
0.0002234958956
0.0002229687379
0.0002232318511
0.0002263560309
0.0002260996844
0.0002255804138
0.0002258401655
0.0002245399664
0.0002248001983
0.0002253182029
0.0002250598336
0.0002269377437
0.0002271947887
0.000227452314
0.0002277104795
0.0002279724285
0.0002282330097
0.0002287557581
0.0002284952498
0.000230255755
0.0002305230446
0.0002310617419
0.0002307914256
0.0002291994169
0.0002294640872
0.0002299919142
0.000229726691
0.0002322374203
0.0002319636405
0.0002314203448
0.0002316894825
0.0002345230605
0.0002342345833
0.0002336684556
0.0002339508646
0.0002359913051
0.0002362852101
0.0002368738496
0.000236579479
0.0002380806545
0.0002377744386
0.0002371748269
0.0002374749456
0.0002383929677
0.0002387008863
0.0002393221512
0.0002390099107
0.0002405966807
0.0002402743266
0.0002396365599
0.0002399543591
0.000240924448
0.0002412498288
0.000241914473
0.0002415792551
0.0002348253038
0.0002351144358
0.0002356957993
0.0002354045282
0.000233385741
0.0002331029682
0.000232550723
0.0002328255796
0.0002224506898
0.0002227116784
0.0002232351981
0.0002229755046
0.0002242806368
0.0002240207104
0.0002234970452
0.0002237587905
0.000226680917
0.0002264225914
0.0002259061584
0.000226164324
0.000224874093
0.000225132113
0.000225649128
0.0002253900457
0.0002271258709
0.0002273826249
0.0002276373853
0.0002278979664
0.0002281569468
0.0002284171205
0.0002289378754
0.0002286750387
0.0002303479414
0.0002306153474
0.0002311530116
0.0002308831608
0.0002292943391
0.0002295547165
0.0002300835622
0.0002298198087
0.0002322767396
0.0002320017229
0.0002314604499
0.0002317284379
0.0002345371759
0.0002342484222
0.0002336821926
0.0002339646599
0.0002359955106
0.00023628911
0.0002368772111
0.0002365829714
0.0002380840306
0.0002377776691
0.0002371777955
0.000237478409
0.0002383944084
0.0002387022687
0.0002393231844
0.0002390109876
0.0002405986888
0.0002402757382
0.000239637855
0.0002399561927
0.0002348295238
0.0002351187577
0.0002356996993
0.0002354083408
0.0002333995217
0.0002331162832
0.0002325656824
0.0002328396804
0.0002227990335
0.0002230606478
0.0002235797292
0.0002233178966
0.0002246156655
0.000224360032
0.0002238394227
0.0002240994945
0.0002268710232
0.0002266129886
0.000226099015
0.0002263544593
0.0002250715334
0.0002253296843
0.0002258427849
0.0002255853906
0.0002272226702
0.000227477547
0.0002277366293
0.0002279940818
0.0002282542555
0.0002285108494
0.0002290311968
0.0002287697716
0.0002303875663
0.0002306547976
0.0002311931748
0.0002309236006
0.000229334546
0.0002295951854
0.0002301225177
0.0002298588806
0.0002322905202
0.0002320153872
0.0002314733574
0.0002317417238
0.0002345407993
0.0002342519001
0.0002336862817
0.0002339683997
0.0002359971841
0.0002362912055
0.000236879423
0.0002365844703
0.0002380852529
0.0002377798373
0.0002371799637
0.0002374800533
0.0002348306443
0.0002351199946
0.000235701882
0.0002354098833
0.0002334032761
0.0002331198921
0.0002325687674
0.0002328423725
0.0002230055834
0.0002232622355
0.0002237834851
0.0002235233114
0.0002248135133
0.0002245569485
0.0002240420872
0.0002242993942
0.0002269671095
0.0002267091186
0.0002261975606
0.0002264537325
0.0002251752303
0.0002254309074
0.0002259412722
0.0002256853331
0.0002272641868
0.0002275214792
0.0002277783351
0.0002280373446
0.0002282951318
0.0002285538794
0.000229073572
0.000228812045
0.0002304007357
0.0002306689566
0.0002312058932
0.0002309373085
0.0002293480211
0.0002296084131
0.0002301370405
0.0002298736945
0.0002322940272
0.0002320186031
0.0002314750745
0.0002317448379
0.0002345414105
0.0002342528169
0.0002336866746
0.0002339685743
0.0002334037126
0.0002331204305
0.0002325679379
0.0002328426635
0.0002231125836
0.0002233710693
0.0002238898014
0.0002236296859
0.000224915726
0.0002246589138
0.0002241473703
0.0002244022908
0.0002270097466
0.0002267542732
0.0002262406779
0.0002264969226
0.0002252205595
0.0002254754509
0.0002259857138
0.0002257283777
0.0002272781421
0.0002275353618
0.0002277947788
0.000228051882
0.0002283099166
0.0002285681694
0.0002290870034
0.0002288264513
0.0002304048976
0.0002306725946
0.0002312085708
0.0002309404081
0.0002293517464
0.0002296133898
0.0002301410132
0.0002298779582
0.0002322935907
0.0002320191852
0.0002314758894
0.0002317460021
0.0002231622493
0.0002234198037
0.0002239366149
0.0002236776927
0.0002249624522
0.000224705349
0.0002241938637
0.0002244491188
0.0002270248224
0.0002267689124
0.0002262568742
0.0002265133953
0.0002252370905
0.0002254915453
0.0002260007022
0.0002257460583
0.000227281329
0.0002275386214
0.0002277976309
0.0002280549088
0.0002283113135
0.0002285699011
0.0002290905395
0.0002288301766
0.0002304053342
0.0002306728711
0.0002312087599
0.0002309415868
0.000229353609
0.0002296146995
0.0002301413915
0.0002298789332
0.0002231784456
0.0002234375715
0.000223953466
0.0002236950968
0.000224980613
0.0002247219963
0.0002242112241
0.0002244664647
0.0002270262194
0.0002267735399
0.0002262619819
0.000226517499
0.0002252405247
0.0002254962019
0.00022600597
0.0002257503656
0.0002272823476
0.0002275395091
0.000227796656
0.000228053148
0.0002283097565
0.0002285691735
0.0002290928824
0.0002288307442
0.0002231821272
0.0002234402928
0.0002239584283
0.0002237008594
0.0002249843819
0.000224726653
0.0002242163173
0.0002244700445
0.0002270274563
0.0002267723758
0.0002262621565
0.0002265179646
0.0002252399572
0.000225495387
0.0002260059555
0.000225750322
0.0002231817634
0.0002234417043
0.0002239605528
0.0002237007575
0.0002249846002
0.000224727075
0.0002242163755
0.0002244711068
0.0001785137429
0.0001785115019
0.0001789863891
0.00017849906
0.0001789840753
0.0001794595883
0.0001784538035
0.0001789720845
0.0001794570853
0.0001799304591
0.0001783338375
0.0001789271628
0.0001794445125
0.0001799259335
0.0001803995401
0.0001780804596
0.0001788088703
0.0001794001
0.0001799130259
0.0001803948544
0.0001808642264
0.0001776191057
0.0001785558561
0.0001792822441
0.0001798695012
0.0001803813502
0.0001808584493
0.0001813284471
0.0001768797229
0.0001780986495
0.0001790318202
0.0001797532459
0.0001803376072
0.0001808452944
0.000181323514
0.0001817904704
0.000175784633
0.0001773600961
0.0001785739441
0.0001795017743
0.0001802206971
0.0001808016095
0.0001813101117
0.0001817850862
0.0001822475169
0.0001742932654
0.0001762690372
0.0001778398
0.0001790481765
0.0001799720631
0.0001806865039
0.0001812664268
0.0001817720331
0.000182243748
0.0001827017986
0.0001724878821
0.0001747821225
0.0001767514477
0.0001783151383
0.0001795180433
0.0001804378262
0.0001811510883
0.0001817287121
0.0001822305203
0.0001826973166
0.0001831534319
0.0001729843207
0.0001704425085
0.0001752678654
0.0001772310643
0.000178790855
0.000179988856
0.0001809054957
0.0001816145232
0.0001821878832
0.0001826854423
0.0001831497066
0.0001836034789
0.000173471024
0.0001708567434
0.0001678540575
0.0001757532737
0.000177711685
0.0001792626426
0.0001804569038
0.000181369629
0.0001820745238
0.0001826426887
0.0001831368136
0.0001835986768
0.0001840481418
0.0001739624131
0.0001714301761
0.0001683354058
0.0001651129569
0.0001762391184
0.0001781891042
0.0001797368168
0.0001809257374
0.0001818322053
0.0001825303916
0.0001830949477
0.0001835859875
0.0001840441546
0.0001844920189
0.0001744531328
0.000171830965
0.000168842962
0.0001655074157
0.0001629370818
0.0001767230424
0.0001786659268
0.000180207222
0.0001813901617
0.0001822891645
0.0001829828543
0.000183543787
0.0001840314653
0.0001844880753
0.0001849330147
0.000174945133
0.0001724234025
0.0001693001832
0.0001661155693
0.0001594364294
0.0001637946116
0.0001772049727
0.0001791421673
0.0001806766086
0.0001818495803
0.0001827423403
0.0001834322466
0.0001839898323
0.0001844763028
0.0001849299588
0.0001853708673
0.0001754289551
0.0001728255302
0.0001698346459
0.0001664856391
0.0001573812478
0.0001603677811
0.0001649568294
0.0001776864956
0.0001796151773
0.0001811382099
0.0001823042694
0.0001831922127
0.0001838787866
0.0001844337676
0.0001849167165
0.0001853673602
0.0001858073229
0.0001759183651
0.0001734067773
0.0001703035377
0.0001671149221
0.000159280622
0.0001540983212
0.0001614589128
0.0001658128749
0.0001674953965
0.0001781651808
0.0001800822793
0.000181596406
0.000182756281
0.0001836402662
0.0001843238424
0.0001848746033
0.0001853550784
0.0001858046162
0.0001862414065
0.0001764028275
0.0001738063584
0.0001708227646
0.0001611632033
0.0001624065189
0.0001552520698
0.0001521371596
0.0001684921444
0.0001669781923
0.0001681111753
0.000178639908
0.0001805458451
0.0001820520556
0.0001832067792
0.0001840881305
0.0001847660751
0.0001853132853
0.0001857928874
0.000186239602
0.0001866709936
0.00017688761
0.0001743952016
0.0001712910307
0.0001634990476
0.000163213379
0.000157026283
0.0001644560252
0.0001557551441
0.000148328254
0.0001691213693
0.0001678403787
0.0001695036772
0.000179109571
0.0001810070535
0.0001825065265
0.0001836556621
0.0001845311344
0.0001852048154
0.0001857519237
0.0001862277277
0.0001866686216
0.0001870959532
0.0001773624972
0.0001747928327
0.0001718254935
0.0001664945303
0.0001585726714
0.0001655442029
0.0001652286155
0.000152497465
0.0001597865921
0.000145525235
0.0001705041359
0.0001690031058
0.0001701237925
0.0001722939778
0.000179579205
0.0001814679272
0.0001829601242
0.0001841025951
0.0001849724358
0.0001856432646
0.0001861865603
0.0001866566017
0.0001870935521
0.0001875162125
0.0001778428414
0.0001753686374
0.0001698574633
0.0001675702224
0.0001609271858
0.0001671756909
0.0001684988238
0.0001494255121
0.0001564393606
0.0001636417437