/*--------------------------------*- C++ -*----------------------------------*\
  =========                 |
  \\      /  F ield         | OpenFOAM: The Open Source CFD Toolbox
   \\    /   O peration     | Website:  https://openfoam.org
    \\  /    A nd           | Version:  8
     \\/     M anipulation  |
\*---------------------------------------------------------------------------*/






FoamFile
{
    version     2.0;
    format      ascii;
    class       volVectorField;
    location    "0";
    object      UDDES;
}
// * * * * * * * * * * * * * * * * * * * * * * * * * * * * * * * * * * * * * //

dimensions      [0 1 -1 0 0 0 0];


internalField   nonuniform List<vector> 
20307
(
( 0.009670175612 0.000504454656 -6.869089702e-05 )
( 0.01017943956 0.0005482684355 -7.730297511e-05 )
( 0.009716432542 0.0004764335754 -6.181016215e-05 )
( 0.0102488976 0.000488799531 -6.463893806e-05 )
( 0.0109133143 0.0006265366101 -8.990758215e-05 )
( 0.00975649897 0.0004519378708 -5.577094271e-05 )
( 0.009114958346 0.000405675848 -4.558536966e-05 )
( 0.00979574956 0.0004266237956 -5.035833601e-05 )
( 0.01032657363 0.0004339645966 -5.309194967e-05 )
( 0.01095451135 0.0005657154252 -8.279694885e-05 )
( 0.0113557186 0.0006177356117 -9.12030082e-05 )
( 0.00917215459 0.0003801037383 -3.910312444e-05 )
( 0.008661424741 0.0003487874055 -2.976546784e-05 )
( 0.008641084656 0.0003552418784 -3.039470903e-05 )
( 0.009844484739 0.0004043210356 -4.398763485e-05 )
( 0.009215304628 0.0003637693299 -3.486886635e-05 )
( 0.0103870295 0.0003805054876 -4.469385385e-05 )
( 0.01100996695 0.0004897178151 -7.591603935e-05 )
( 0.009880548343 0.0003798178805 -3.904161349e-05 )
( 0.01141489949 0.0004742954625 -8.809626161e-05 )
( 0.008696485311 0.0003411489597 -2.712867899e-05 )
( 0.008717522956 0.0003339659888 -2.507071076e-05 )
( 0.008044528775 0.0002944168809 -1.411607445e-05 )
( 0.008014883846 0.0003039444564 -1.519436137e-05 )
( 0.009268293157 0.0003392438812 -2.903938184e-05 )
( 0.008773276582 0.00031197723 -2.021921682e-05 )
( 0.008752366528 0.0003189268173 -2.1791986e-05 )
( 0.009929151274 0.0003299268719 -2.783176933e-05 )
( 0.01044837013 0.00033389905 -4.252860163e-05 )
( 0.01104168873 0.0004365897912 -7.102186646e-05 )
( 0.009903612547 0.0003553405113 -3.303081394e-05 )
( 0.009307103232 0.0003239192883 -2.545727511e-05 )
( 0.01145128161 0.0003500783641 -8.963021537e-05 )
( 0.008079783991 0.0002889062744 -1.223675554e-05 )
( 0.008108391427 0.0002793548629 -1.026168866e-05 )
( 0.007388109341 0.0002432580513 -3.522834277e-06 )
( 0.007355747744 0.0002468789171 -4.206322501e-06 )
( 0.008805063553 0.0003048811632 -1.80317802e-05 )
( 0.008824469522 0.0002984329767 -1.668622099e-05 )
( 0.008169757202 0.0002637209836 -6.077449598e-06 )
( 0.008139243349 0.0002728606341 -7.552223906e-06 )
( 0.009968229569 0.000310720352 -2.654532364e-05 )
( 0.009377382696 0.0002829840523 -1.67406979e-05 )
( 0.01048152056 0.0002871047764 -4.054313831e-05 )
( 0.01107907761 0.0003708731092 -7.15111164e-05 )
( 0.01000494324 0.0002902685374 -2.447826955e-05 )
( 0.009352652356 0.000300256128 -2.086848144e-05 )
( 0.008874343708 0.0002783317177 -1.344241991e-05 )
( 0.008855834603 0.0002843959664 -1.446123315e-05 )
( 0.01145496871 0.0002393067261 -9.264126129e-05 )
( 0.01109001786 0.000324338791 -6.966695946e-05 )
( 0.007429262623 0.000234337349 -1.982530421e-06 )
( 0.007456793915 0.0002307425893 -4.789985724e-07 )
( 0.006703568622 0.0001932690502 4.26833958e-06 )
( 0.006664592307 0.0002009224554 3.585020977e-06 )
( 0.008199481294 0.0002589740907 -4.769200586e-06 )
( 0.008227876388 0.000250060315 -3.632424978e-06 )
( 0.007520923857 0.0002181595191 3.133470273e-06 )
( 0.007494099904 0.0002215920686 1.857445113e-06 )
( 0.00942321308 0.0002622283355 -1.335858269e-05 )
( 0.008960125037 0.0002447613515 -7.445109077e-06 )
( 0.008945276029 0.0002506619785 -8.656265891e-06 )
( 0.0100480495 0.0002505116281 -2.131659676e-05 )
( 0.01048945915 0.0002412679023 -3.662499148e-05 )
( 0.01002576761 0.0002710828849 -2.254303763e-05 )
( 0.009451746009 0.0002478841925 -1.181143671e-05 )
( 0.008902036585 0.0002715899609 -1.192649233e-05 )
( 0.008919456974 0.0002646367648 -1.109868936e-05 )
( 0.008280426264 0.0002354657918 -1.53404244e-06 )
( 0.008255948313 0.000244078401 -2.301177574e-06 )
( 0.01108908094 0.0002227566292 -6.971705443e-05 )
( 0.01108822878 0.0002628898073 -6.78344004e-05 )
( 0.01145344879 0.0001393476996 -0.0001011662025 )
( 0.006744781509 0.0001909351558 5.299081749e-06 )
( 0.006781512406 0.0001835485164 6.700977337e-06 )
( 0.005927119404 0.0001511765004 9.037338714e-06 )
( 0.00588385528 0.000155388203 8.471801266e-06 )
( 0.007559722289 0.0002099369594 4.482000804e-06 )
( 0.007585256826 0.0002065310255 5.264586434e-06 )
( 0.006853827741 0.0001736264821 1.000295742e-05 )
( 0.006816918962 0.0001808549132 8.511849956e-06 )
( 0.008982940577 0.0002389004076 -6.012414815e-06 )
( 0.008997382596 0.0002329785202 -5.258023521e-06 )
( 0.008379914798 0.0002087707544 1.546921112e-06 )
( 0.008357460611 0.0002166441845 6.033207001e-07 )
( 0.01006320305 0.000230833175 -1.961046837e-05 )
( 0.009506961331 0.0002138325071 -8.292337952e-06 )
( 0.01050005574 0.0002009246527 -3.780213592e-05 )
( 0.01008302253 0.0002109480556 -1.956961751e-05 )
( 0.009483895265 0.0002266262163 -9.326247891e-06 )
( 0.00903418567 0.0002136727271 -3.402624088e-06 )
( 0.009020809084 0.0002198608854 -4.083445219e-06 )
( 0.008308873512 0.0002310690761 -1.156840426e-06 )
( 0.008334352635 0.0002220839961 -7.354242371e-07 )
( 0.0076416675 0.0001945550757 6.829115591e-06 )
( 0.007618720178 0.0001976970671 6.433593626e-06 )
( 0.01110335533 0.000171115651 -7.685139281e-05 )
( 0.01141636353 4.639802501e-05 -0.0001053171291 )
( 0.01110122912 0.0001358885784 -8.115517267e-05 )
( 0.005969351158 0.0001477176993 9.878971468e-06 )
( 0.006010156125 0.0001436708844 1.120961952e-05 )
( 0.005057970993 0.000111657464 1.168315976e-05 )
( 0.005012976937 0.0001145653514 1.138333209e-05 )
( 0.006887973286 0.0001713556703 1.098777466e-05 )
( 0.006923260167 0.0001642788848 1.1859187e-05 )
( 0.006087940186 0.0001361092873 1.409074048e-05 )
( 0.006049603689 0.0001401306217 1.282039648e-05 )
( 0.008404214866 0.0002048417955 2.488778819e-06 )
( 0.008420770057 0.000196776542 3.251851467e-06 )
( 0.007756317966 0.0001735797705 8.009523299e-06 )
( 0.00773275597 0.0001761426975 7.939241186e-06 )
( 0.009534714743 0.0001952298335 -7.47416243e-06 )
( 0.009094311856 0.0001845663792 -9.015681144e-07 )
( 0.009083460085 0.0001899185445 -1.450178274e-06 )
( 0.01010204665 0.0001786412467 -2.169673098e-05 )
( 0.01008994039 0.000195089422 -1.996552055e-05 )
( 0.01052527409 0.000165167221 -4.38809584e-05 )
( 0.009555285797 0.0001821977494 -6.872572158e-06 )
( 0.009053239599 0.0002077848039 -2.505986686e-06 )
( 0.009055349045 0.0002015275822 -2.586191385e-06 )
( 0.008463803679 0.0001840480545 4.366357643e-06 )
( 0.008443794213 0.0001916992187 3.800491868e-06 )
( 0.007676132023 0.0001869876578 7.390664905e-06 )
( 0.007701774593 0.0001838005119 7.157249001e-06 )
( 0.006985303946 0.0001549388398 1.298425923e-05 )
( 0.00695490744 0.000161782038 1.250507739e-05 )
( 0.01138056722 -4.39082396e-05 -0.000108652268 )
( 0.01105175912 5.550800415e-05 -8.647512732e-05 )
( 0.01107732393 8.898819942e-05 -8.473632624e-05 )
( 0.01053995825 0.0001304402249 -5.062668424e-05 )
( 0.005101580173 0.0001089702273 1.248858825e-05 )
( 0.005144029856 0.0001061413786 1.379417427e-05 )
( 0.004158380907 7.8103345e-05 1.29714972e-05 )
( 0.00411390746 8.011912723e-05 1.263505419e-05 )
( 0.006125951186 0.0001329200168 1.491891089e-05 )
( 0.006162345409 0.0001290680084 1.560666715e-05 )
( 0.005225533154 0.0001006870007 1.6106158e-05 )
( 0.00518521294 0.0001034264424 1.503767817e-05 )
( 0.007784232497 0.0001665269228 8.614352737e-06 )
( 0.007801985368 0.0001639015827 8.882288967e-06 )
( 0.007105369121 0.0001384138886 1.332371176e-05 )
( 0.007076155394 0.0001445697853 1.325366429e-05 )
( 0.009110708721 0.0001798538578 -4.31484068e-07 )
( 0.009120586328 0.000174763336 -1.641211611e-07 )
( 0.008532028645 0.0001607221639 5.818236332e-06 )
( 0.008508556522 0.000167593098 5.08374751e-06 )
( 0.009589182213 0.0001553930633 -8.30436602e-06 )
( 0.01012016274 0.0001646566088 -2.534399027e-05 )
( 0.009576611221 0.0001655482629 -7.269217804e-06 )
( 0.01013529021 0.0001486870315 -2.846829921e-05 )
( 0.009144863114 0.0001579408272 3.713347496e-07 )
( 0.009136207402 0.0001628725731 1.128809117e-07 )
( 0.00847195182 0.0001800228492 4.382572115e-06 )
( 0.008483889513 0.0001723268651 4.362303116e-06 )
( 0.007847932167 0.0001546323911 9.577123819e-06 )
( 0.007827551104 0.0001568122243 9.421928553e-06 )
( 0.00701730093 0.0001531116868 1.310448442e-05 )
( 0.00704821106 0.000146577775 1.319754301e-05 )
( 0.006231974345 0.0001221286948 1.645659722e-05 )
( 0.006197744515 0.0001258496486 1.614928624e-05 )
( 0.01134514343 -0.0001257902331 -0.0001168176896 )
( 0.01103798952 -3.061211828e-05 -9.332926129e-05 )
( 0.01103420742 6.526899597e-06 -8.907685697e-05 )
( 0.01052439306 6.715352356e-05 -5.88578514e-05 )
( 0.01053575426 9.778358799e-05 -5.475417856e-05 )
( 0.01014829241 0.0001205878507 -3.381743591e-05 )
( 0.01014246047 0.0001355207351 -3.161127825e-05 )
( 0.004201758187 7.624130376e-05 1.368847916e-05 )
( 0.004244047683 7.426540105e-05 1.480046012e-05 )
( 0.003273908282 5.160633009e-05 1.25634333e-05 )
( 0.003232060932 5.291464913e-05 1.238376808e-05 )
( 0.0052648657 9.82182537e-05 1.677137334e-05 )
( 0.005302987061 9.558723104e-05 1.748270734e-05 )
( 0.004325492773 7.047021063e-05 1.659028385e-05 )
( 0.004285140894 7.235250087e-05 1.593687557e-05 )
( 0.007134201936 0.0001370975951 1.338104539e-05 )
( 0.007156495936 0.0001311919623 1.364077798e-05 )
( 0.006358471233 0.0001094565523 1.637968671e-05 )
( 0.006328027695 0.0001127169817 1.643037285e-05 )
( 0.00854646042 0.0001574181952 6.054754067e-06 )
( 0.008559024893 0.0001502914092 6.316805866e-06 )
( 0.007929107174 0.0001362855837 1.027540566e-05 )
( 0.007913095877 0.0001386435615 1.032332329e-05 )
( 0.009184065275 0.0001362255134 -1.001354804e-06 )
( 0.009177895263 0.0001397421584 -2.471682592e-07 )
( 0.009608955123 0.0001410337863 -1.093866649e-05 )
( 0.009157663211 0.0001538853103 6.680033948e-07 )
( 0.009165298194 0.0001497593476 5.676144497e-07 )
( 0.009621155448 0.0001312580571 -1.304708258e-05 )
( 0.008585883304 0.0001386740478 6.843798928e-06 )
( 0.008574597538 0.0001457121398 6.490253327e-06 )
( 0.007870497182 0.0001482105145 1.001241526e-05 )
( 0.00787900947 0.000145358179 9.624227459e-06 )
( 0.007208647206 0.0001243650186 1.407753734e-05 )
( 0.007183116395 0.0001299739815 1.379156402e-05 )
( 0.006264953874 0.0001191622578 1.650371269e-05 )
( 0.006296987645 0.0001156169965 1.649168553e-05 )
( 0.005375890993 9.06248024e-05 1.805121428e-05 )
( 0.005339884199 9.312769544e-05 1.786839493e-05 )
( 0.01102812402 -7.492650184e-05 -0.0001004785081 )
( 0.01128171012 -0.0002038899111 -0.0001248379413 )
( 0.01100977417 -0.0001046127727 -0.0001042222575 )
( 0.01049778145 1.973057351e-06 -6.069474694e-05 )
( 0.0105064325 3.442591333e-05 -5.906393926e-05 )
( 0.01015629061 6.61227532e-05 -4.075806646e-05 )
( 0.01015558001 8.112964861e-05 -4.005384835e-05 )
( 0.01015161444 0.0001077279449 -3.661190203e-05 )
( 0.01015783474 9.284296539e-05 -3.827341061e-05 )
( 0.009640665725 0.0001088873396 -1.644320946e-05 )
( 0.009634209797 0.0001175242141 -1.496496407e-05 )
( 0.003314632224 5.037131632e-05 1.327645168e-05 )
( 0.003354286542 4.90459679e-05 1.44182668e-05 )
( 0.00244995486 3.19962237e-05 1.102441365e-05 )
( 0.002413199982 3.280246892e-05 1.0808566e-05 )
( 0.004364636727 6.879339344e-05 1.730163058e-05 )
( 0.00440265052 6.692967145e-05 1.787485053e-05 )
( 0.003431074321 4.652268399e-05 1.585832433e-05 )
( 0.003393212799 4.778444782e-05 1.518270983e-05 )
( 0.006387951318 0.0001070027938 1.627464553e-05 )
( 0.00641642604 0.0001041478099 1.629052531e-05 )
( 0.005509189796 8.154207899e-05 1.759362567e-05 )
( 0.005477255676 8.371497097e-05 1.776794306e-05 )
( 0.00794458203 0.0001299454016 1.041399992e-05 )
( 0.007956874557 0.0001277254196 1.047857586e-05 )
( 0.007296916097 0.0001107420903 1.419118053e-05 )
( 0.007277829573 0.0001162336994 1.43008092e-05 )
( 0.008633760735 0.0001202726344 5.880049684e-06 )
( 0.009194296785 0.0001333245891 -1.951002105e-06 )
( 0.008622664027 0.0001264405728 6.446353837e-06 )
( 0.009200843982 0.0001294823742 -2.270498953e-06 )
( 0.008602182381 0.0001365227945 7.012631613e-06 )
( 0.008612363599 0.0001299601427 6.981810657e-06 )
( 0.009216465987 0.0001157981751 -4.403842468e-06 )
( 0.00921153184 0.0001193975331 -3.550966767e-06 )
( 0.00798929669 0.0001185425208 1.064591925e-05 )
( 0.007973676547 0.000120764249 1.060349587e-05 )
( 0.007230980322 0.000123362086 1.425882692e-05 )
( 0.007252455689 0.0001175957805 1.441308996e-05 )
( 0.006470493041 9.921449964e-05 1.645500561e-05 )
( 0.006443817168 0.0001019295887 1.633417924e-05 )
( 0.005410692655 8.82937311e-05 1.806145883e-05 )
( 0.005444483832 8.592787344e-05 1.792229341e-05 )
( 0.004475829657 6.353890058e-05 1.822529521e-05 )
( 0.004439679906 6.52622839e-05 1.814839197e-05 )
( 0.01047951449 -2.828504512e-05 -6.186893734e-05 )
( 0.01097946148 -0.0001450817799 -0.0001103811228 )
( 0.0112001244 -0.0002745660022 -0.0001350678358 )
( 0.01095325686 -0.0001708059426 -0.0001168818344 )
( 0.01046012342 -5.529918417e-05 -6.453179958e-05 )
( 0.0101329023 1.153098947e-05 -3.795929661e-05 )
( 0.01013908535 2.604066867e-05 -3.912880129e-05 )
( 0.01015010662 5.319993943e-05 -4.123340477e-05 )
( 0.01014694013 3.835853568e-05 -4.045097012e-05 )
( 0.009661250748 6.31551593e-05 -2.111601134e-05 )
( 0.00965985842 7.292514783e-05 -2.076159217e-05 )
( 0.009650559165 9.494937694e-05 -1.822299964e-05 )
( 0.009655740112 8.536622045e-05 -1.929127757e-05 )
( 0.00924107153 9.657386545e-05 -6.725974799e-06 )
( 0.009237095714 0.0001003039069 -6.24011318e-06 )
( 0.009224329144 0.0001135715793 -4.934096069e-06 )
( 0.009229375049 0.0001098108914 -5.238588074e-06 )
( 0.00248585688 3.123402712e-05 1.16180845e-05 )
( 0.002520894166 3.042134085e-05 1.250222977e-05 )
( 0.001732051838 1.838769458e-05 8.767851796e-06 )
( 0.001701924717 1.884460653e-05 8.597105989e-06 )
( 0.003468031064 4.543145769e-05 1.632783096e-05 )
( 0.003501381259 4.411544796e-05 1.682279617e-05 )
( 0.002588535426 2.884554124e-05 1.364014133e-05 )
( 0.002555042971 2.96134931e-05 1.31653087e-05 )
( 0.005540381651 7.96333552e-05 1.73210683e-05 )
( 0.005570407957 7.780612214e-05 1.720405999e-05 )
( 0.004610048607 5.733821308e-05 1.736710874e-05 )
( 0.004577831365 5.881744437e-05 1.772978976e-05 )
( 0.007315303199 0.0001096577907 1.40819393e-05 )
( 0.007332747802 0.0001039366034 1.408612752e-05 )
( 0.006568684243 8.949884068e-05 1.589312706e-05 )
( 0.006545831449 9.206945833e-05 1.619783325e-05 )
( 0.008043120615 0.0001030331914 1.002210229e-05 )
( 0.008642503992 0.0001188172973 5.366903679e-06 )
( 0.008033879101 0.0001046388861 1.034838533e-05 )
( 0.008653998375 0.0001127004653 5.056934242e-06 )
( 0.008008280769 0.0001127634605 1.072530722e-05 )
( 0.008020707406 0.0001108037904 1.065597826e-05 )
( 0.008671469986 0.00010365864 3.204256473e-06 )
( 0.008662270382 0.0001092835737 4.095796612e-06 )
( 0.007367233746 9.681562369e-05 1.407473701e-05 )
( 0.007351733278 0.0001024314406 1.402963062e-05 )
( 0.006496595219 9.69881803e-05 1.6501961e-05 )
( 0.006521753035 9.425430471e-05 1.64368721e-05 )
( 0.005628214683 7.433595601e-05 1.699812128e-05 )
( 0.005599652883 7.611577894e-05 1.705659088e-05 )
( 0.004510831088 6.194029265e-05 1.8157667e-05 )
( 0.004544926807 6.027310883e-05 1.79758772e-05 )
( 0.003572902642 4.190970867e-05 1.712714402e-05 )
( 0.003538898658 4.307023482e-05 1.702472218e-05 )
( 0.01011268143 -1.390875514e-05 -3.718095832e-05 )
( 0.01012182143 -2.747954113e-07 -3.770240437e-05 )
( 0.01042668894 -8.22700822e-05 -6.780464173e-05 )
( 0.01109792199 -0.0003377358662 -0.0001428946707 )
( 0.01091088727 -0.0002071540221 -0.0001247678447 )
( 0.01087174285 -0.0002324405214 -0.0001300223084 )
( 0.01039035805 -0.0001061392686 -7.497517799e-05 )
( 0.01010086387 -2.394544754e-05 -3.730963363e-05 )
( 0.01008884422 -3.627459591e-05 -3.758692765e-05 )
( 0.009651471861 1.869514745e-05 -1.57094546e-05 )
( 0.009655783884 2.75403163e-05 -1.771709685e-05 )
( 0.00966137182 4.966040433e-05 -2.095912896e-05 )
( 0.00965996366 4.083698877e-05 -1.969077312e-05 )
( 0.009266609326 5.745551243e-05 -9.48120578e-06 )
( 0.009265609086 6.124915672e-05 -9.59888439e-06 )
( 0.00926028192 7.489246491e-05 -9.330050489e-06 )
( 0.009262288921 7.090129657e-05 -9.552087249e-06 )
( 0.00924614165 9.394518565e-05 -7.493090379e-06 )
( 0.009249541909 9.020491416e-05 -7.688898222e-06 )
( 0.009258036502 7.698399713e-05 -8.215517482e-06 )
( 0.009255276062 8.06455937e-05 -7.932637345e-06 )
( 0.008699735627 8.764415543e-05 1.148111096e-06 )
( 0.008694318123 9.337881056e-05 1.66376833e-06 )
( 0.0086787045 0.000102446902 2.704882263e-06 )
( 0.00868557021 9.671195585e-05 2.410029765e-06 )
( 0.001761475229 1.795636126e-05 9.238988241e-06 )
( 0.001790185925 1.748726936e-05 9.923020116e-06 )
( 0.001146834111 9.50984213e-06 6.372326425e-06 )
( 0.001124068862 9.742389011e-06 6.238004516e-06 )
( 0.002621061867 2.81643388e-05 1.403453098e-05 )
( 0.002649274422 2.73058904e-05 1.435275408e-05 )
( 0.001848095912 1.663779585e-05 1.083217467e-05 )
( 0.001818256686 1.702974259e-05 1.03654329e-05 )
( 0.004641288891 5.610799781e-05 1.711221739e-05 )
( 0.004671835341 5.485691145e-05 1.682175753e-05 )
( 0.003699895926 3.800734703e-05 1.593911475e-05 )
( 0.003669458907 3.888531501e-05 1.631929081e-05 )
( 0.00659088837 8.733861614e-05 1.555383642e-05 )
( 0.006612082478 8.445659478e-05 1.536342643e-05 )
( 0.005734721199 6.775803195e-05 1.562945727e-05 )
( 0.005709408782 6.93938855e-05 1.612068809e-05 )
( 0.007430448662 8.415510092e-05 1.306774811e-05 )
( 0.008058132604 9.775131912e-05 9.467718883e-06 )
( 0.007414972875 8.925263683e-05 1.351526589e-05 )
( 0.008066855371 9.627893451e-05 9.060363482e-06 )
( 0.007387009449 9.569194663e-05 1.390065154e-05 )
( 0.007401330397 9.038348071e-05 1.379386413e-05 )
( 0.008088126779 8.890925528e-05 7.330756489e-06 )
( 0.008080562577 9.031072113e-05 8.03580042e-06 )
( 0.006651780568 7.90374761e-05 1.50627302e-05 )
( 0.006632528268 8.197300485e-05 1.518336649e-05 )
( 0.005656065419 7.269911293e-05 1.683526898e-05 )
( 0.005683332682 7.090448344e-05 1.6551925e-05 )
( 0.00473070005 5.259128375e-05 1.637257446e-05 )
( 0.004701560829 5.376211629e-05 1.659474037e-05 )
( 0.003606005572 4.085615365e-05 1.702046393e-05 )
( 0.003638190683 3.980665133e-05 1.668354525e-05 )
( 0.002713525435 2.593805948e-05 1.457847611e-05 )
( 0.002681043465 2.660648897e-05 1.453837922e-05 )
( 0.009636158124 -2.114556764e-06 -1.197407073e-05 )
( 0.009643678553 6.053242942e-06 -1.385538326e-05 )
( 0.01007196866 -4.686440661e-05 -3.948482481e-05 )
( 0.01005509403 -5.915925067e-05 -4.143017577e-05 )
( 0.01099158358 -0.0003882711171 -0.0001420072804 )
( 0.01076119952 -0.0002875404316 -0.0001438711188 )
( 0.01080798358 -0.0002649372909 -0.0001382615301 )
( 0.01034759544 -0.0001293160458 -7.966108387e-05 )
( 0.01030125283 -0.0001531450835 -8.424301632e-05 )
( 0.01003010571 -6.726432184e-05 -4.466959217e-05 )
( 0.01001355052 -7.704968448e-05 -4.623862696e-05 )
( 0.009625073522 -1.290595355e-05 -1.102300303e-05 )
( 0.009614307433 -2.022953049e-05 -1.053657797e-05 )
( 0.009263793938 1.939652248e-05 -4.083905878e-06 )
( 0.009265347384 2.295398008e-05 -4.931075182e-06 )
( 0.009267286398 3.585570448e-05 -6.97757514e-06 )
( 0.009266348556 3.217162885e-05 -6.255519565e-06 )
( 0.009267186746 5.483760106e-05 -9.489015611e-06 )
( 0.009267667308 5.120848436e-05 -9.3072249e-06 )
( 0.009268784896 3.836542965e-05 -8.05937816e-06 )
( 0.009268918075 4.200027615e-05 -8.602552043e-06 )
( 0.008737048134 5.556194083e-05 -1.417232397e-06 )
( 0.008734937757 6.118941383e-05 -1.333996238e-06 )
( 0.008727398701 7.041457866e-05 -8.255452144e-07 )
( 0.008730070665 6.46797489e-05 -9.842551663e-07 )
( 0.008707155474 8.604444156e-05 7.678619909e-07 )
( 0.008711736649 8.048446034e-05 4.40965124e-07 )
( 0.008722354658 7.155408093e-05 -8.680501651e-09 )
( 0.00871903915 7.694576925e-05 2.866150624e-07 )
( 0.008121810853 7.601948164e-05 5.043073998e-06 )
( 0.008114052936 7.753448153e-05 5.559785677e-06 )
( 0.008098177612 8.439622616e-05 6.825315722e-06 )
( 0.008104531094 8.300838817e-05 6.431400834e-06 )
( 0.001169082709 9.291596143e-06 6.723803381e-06 )
( 0.001190793002 9.049277651e-06 7.221484793e-06 )
( 0.0006947422517 4.182425982e-06 4.183315014e-06 )
( 0.0006792432978 4.282528607e-06 4.083763997e-06 )
( 0.001875701942 1.627255733e-05 1.112737391e-05 )
( 0.001898149843 1.574838097e-05 1.136858646e-05 )
( 0.001232679817 8.572727893e-06 7.868595276e-06 )
( 0.001211969065 8.803724086e-06 7.572697996e-06 )
( 0.003729762975 3.720910536e-05 1.545759915e-05 )
( 0.003758793231 3.647885023e-05 1.522158345e-05 )
( 0.00282580452 2.357609083e-05 1.315364352e-05 )
( 0.002798672765 2.412146387e-05 1.369339589e-05 )
( 0.005758966785 6.621917419e-05 1.513441202e-05 )
( 0.005782544613 6.435550313e-05 1.46901275e-05 )
( 0.004840685986 4.836489461e-05 1.448448529e-05 )
( 0.004814372864 4.93962325e-05 1.507566958e-05 )
( 0.007443176117 8.346010873e-05 1.255282677e-05 )
( 0.006721687969 6.920381566e-05 1.390473153e-05 )
( 0.006705216132 7.177773659e-05 1.432860972e-05 )
( 0.007458403707 7.833404379e-05 1.185012388e-05 )
( 0.006670410279 7.674933295e-05 1.489590522e-05 )
( 0.006688401569 7.393525448e-05 1.467043057e-05 )
( 0.007482828572 7.264081069e-05 1.034420075e-05 )
( 0.007469397038 7.744664617e-05 1.115415398e-05 )
( 0.005826823413 6.049044896e-05 1.41084538e-05 )
( 0.005804989953 6.251512968e-05 1.435964714e-05 )
( 0.004759176169 5.154422252e-05 1.611355765e-05 )
( 0.004787135404 5.041011173e-05 1.569014967e-05 )
( 0.003815332428 3.507815563e-05 1.458259521e-05 )
( 0.003787336405 3.578893302e-05 1.491461171e-05 )
( 0.002742673038 2.527504512e-05 1.439603693e-05 )
( 0.002771094441 2.464054523e-05 1.399820485e-05 )
( 0.001948002144 1.490207524e-05 1.133366914e-05 )
( 0.00192349602 1.533466457e-05 1.135641742e-05 )
( 0.009251774289 2.552843625e-06 6.068697758e-07 )
( 0.009254642762 5.362479897e-06 -3.254158401e-07 )
( 0.009260231629 1.717370833e-05 -2.874256779e-06 )
( 0.00925808493 1.383233302e-05 -1.952961384e-06 )
( 0.009598514065 -3.00518368e-05 -1.00222187e-05 )
( 0.009583780542 -3.751648183e-05 -1.107547178e-05 )
( 0.01089190785 -0.0004285241012 -0.0001362595794 )
( 0.01069138013 -0.0003139961045 -0.0001465746464 )
( 0.01063665468 -0.000332774187 -0.0001461110369 )
( 0.0101892706 -0.0001977446809 -9.979044262e-05 )
( 0.01024638303 -0.0001755648118 -9.229101124e-05 )
( 0.009971052408 -9.556006989e-05 -5.044677164e-05 )
( 0.009991686791 -8.503263962e-05 -4.862355854e-05 )
( 0.009922625497 -0.0001142119654 -5.499621693e-05 )
( 0.009946558625 -0.0001036169997 -5.202862667e-05 )
( 0.009564070962 -4.636804806e-05 -1.296805021e-05 )
( 0.00954831671 -5.185392365e-05 -1.424384027e-05 )
( 0.009245816618 8.960446962e-07 1.518364115e-06 )
( 0.009241948836 -2.112149105e-06 2.101476639e-06 )
( 0.009231771342 -1.237447941e-05 3.454835451e-06 )
( 0.009236117825 -9.780013897e-06 2.914795004e-06 )
( 0.008745162748 2.399183359e-05 2.538838999e-06 )
( 0.008746448904 2.923931788e-05 1.677993851e-06 )
( 0.008746150881 3.802034917e-05 1.729730172e-07 )
( 0.008745853789 3.25921792e-05 8.338232647e-07 )
( 0.008740226738 5.385437544e-05 -1.500063036e-06 )
( 0.008741644211 4.832861305e-05 -1.400663109e-06 )
( 0.008744813502 3.961963739e-05 -5.414763109e-07 )
( 0.008744359016 4.501658987e-05 -1.028450129e-06 )
( 0.008172845468 5.008926382e-05 2.331894848e-06 )
( 0.008168244734 5.167675408e-05 2.589056066e-06 )
( 0.008157287724 5.862201215e-05 3.303894118e-06 )
( 0.008163148537 5.691489059e-05 3.062595624e-06 )
( 0.00813020952 7.132310566e-05 4.658656508e-06 )
( 0.008138134144 6.963648048e-05 4.392196843e-06 )
( 0.008151721209 6.277356442e-05 3.712799298e-06 )
( 0.00814536307 6.431184738e-05 3.968727924e-06 )
( 0.007523972541 6.219907664e-05 7.724481293e-06 )
( 0.007515049074 6.682022649e-05 8.363743291e-06 )
( 0.007492971141 7.229227049e-05 9.868674169e-06 )
( 0.007503425237 6.768402818e-05 9.272963325e-06 )
( 0.0007098929491 4.088778496e-06 4.424463441e-06 )
( 0.0007246923633 3.980687779e-06 4.777354661e-06 )
( 0.00035747519 1.422015885e-06 2.316410246e-06 )
( 0.0003486665373 1.454915946e-06 2.244029019e-06 )
( 0.001255365321 8.437958058e-06 8.120492566e-06 )
( 0.001272449037 8.152692317e-06 8.185772458e-06 )
( 0.0007532073068 3.770354851e-06 5.180894732e-06 )
( 0.000739128096 3.873784863e-06 4.967537279e-06 )
( 0.002852204256 2.314548328e-05 1.281070399e-05 )
( 0.002878135536 2.271748781e-05 1.247125783e-05 )
( 0.002039999701 1.359126873e-05 1.00889356e-05 )
( 0.002017850056 1.385336964e-05 1.034023262e-05 )
( 0.004866157658 4.739790893e-05 1.391252135e-05 )
( 0.004890756216 4.62076714e-05 1.337483991e-05 )
( 0.003921708092 3.256186028e-05 1.269656241e-05 )
( 0.00389611721 3.316598668e-05 1.323931156e-05 )
( 0.006737917196 6.722788385e-05 1.338924267e-05 )
( 0.005905288272 5.356360998e-05 1.307857201e-05 )
( 0.005886756815 5.521838466e-05 1.338760194e-05 )
( 0.006753530353 6.467508501e-05 1.284406062e-05 )
( 0.005847440567 5.870324821e-05 1.391209571e-05 )
( 0.005867586005 5.683717973e-05 1.366401011e-05 )
( 0.006782376207 6.027280324e-05 1.183546829e-05 )
( 0.006768568885 6.262239185e-05 1.227470329e-05 )
( 0.004937629215 4.361146421e-05 1.250917921e-05 )
( 0.004914782476 4.496723705e-05 1.284401878e-05 )
( 0.003842791077 3.444836693e-05 1.424182119e-05 )
( 0.003869765671 3.376697714e-05 1.378615343e-05 )
( 0.00292869308 2.194592525e-05 1.185954261e-05 )
( 0.002903641202 2.23349216e-05 1.212454663e-05 )
( 0.001971885096 1.451563458e-05 1.106793388e-05 )
( 0.001995148603 1.415426232e-05 1.071859515e-05 )
( 0.001310061081 7.709184501e-06 7.904782251e-06 )
( 0.001291519497 7.937677765e-06 8.074496691e-06 )
( 0.0087375734 1.055052235e-05 6.888777989e-06 )
( 0.008740887977 1.51114109e-05 5.697796041e-06 )
( 0.008744657971 2.273507198e-05 3.48795902e-06 )
( 0.008742517792 1.772938595e-05 4.449786957e-06 )
( 0.009223450907 -1.319496641e-05 3.937433121e-06 )
( 0.009218602441 -1.541328857e-05 4.35378297e-06 )
( 0.009204752743 -2.576961015e-05 4.001420166e-06 )
( 0.009210671298 -2.312591823e-05 4.516895842e-06 )
( 0.01051108819 -0.0003751620534 -0.0001399664907 )
( 0.01056983043 -0.0003559443285 -0.0001436157909 )
( 0.01012693159 -0.0002174983092 -0.000106472522 )
( 0.01005992666 -0.0002353113669 -0.0001090114456 )
( 0.009806796908 -0.0001541314414 -7.082836964e-05 )
( 0.009834832512 -0.0001420009357 -6.72153983e-05 )
( 0.009863909334 -0.0001329304214 -6.336004299e-05 )
( 0.009889937937 -0.0001216033197 -5.991340004e-05 )
( 0.009506491013 -6.589744589e-05 -1.83204138e-05 )
( 0.009525183588 -6.007175762e-05 -1.647389035e-05 )
( 0.009458736517 -8.009112935e-05 -2.405006126e-05 )
( 0.009480026551 -7.462736539e-05 -2.130469693e-05 )
( 0.009193683043 -2.648029295e-05 3.465583632e-06 )
( 0.009187277406 -2.806434532e-05 3.200596666e-06 )
( 0.009170745499 -3.719918823e-05 1.775358442e-06 )
( 0.009177410044 -3.46177294e-05 2.340185802e-06 )
( 0.008734806441 9.519224477e-06 7.836344594e-06 )
( 0.008730518632 4.780114068e-06 8.987603906e-06 )
( 0.008722105995 -1.207633659e-06 1.053807136e-05 )
( 0.008729453199 2.991150268e-06 1.018603416e-05 )
( 0.008192402311 2.401643724e-05 4.575307685e-06 )
( 0.008191100322 2.549715464e-05 4.16405237e-06 )
( 0.008188178763 3.235910845e-05 3.183286481e-06 )
( 0.008190522902 3.073627158e-05 3.487015874e-06 )
( 0.008176862262 4.547149001e-05 2.138346645e-06 )
( 0.008180887438 4.384365457e-05 2.074803888e-06 )
( 0.00818667002 3.693313556e-05 2.541403092e-06 )
( 0.00818367023 3.847780681e-05 2.305217549e-06 )
( 0.007587784436 4.139623707e-05 5.562068964e-06 )
( 0.007582709659 4.589254968e-05 5.775106729e-06 )
( 0.007568764035 5.12143888e-05 6.393598596e-06 )
( 0.00757485535 4.678406549e-05 6.317686712e-06 )
( 0.007534896955 6.151325942e-05 7.39801726e-06 )
( 0.0075433366 5.686135773e-05 7.130898666e-06 )
( 0.007560093887 5.165072071e-05 6.769241281e-06 )
( 0.007553332951 5.597902054e-05 6.852286333e-06 )
( 0.006834128872 5.174412217e-05 9.298831174e-06 )
( 0.006822372321 5.413659528e-05 9.838378901e-06 )
( 0.006796256173 5.850087109e-05 1.127965334e-05 )
( 0.00680943951 5.617020361e-05 1.086717293e-05 )
( 0.0003661008086 1.391841579e-06 2.455983122e-06 )
( 0.0003745335271 1.355479071e-06 2.628164339e-06 )
( 0.0001543941034 4.238705742e-07 1.078189939e-06 )
( 0.000150251828 4.316481181e-07 1.031571855e-06 )
( 0.0007669287734 3.687320259e-06 5.301655165e-06 )
( 0.0007814574055 3.60781587e-06 5.442716883e-06 )
( 0.0003907573991 1.284802352e-06 2.833820645e-06 )
( 0.0003827411856 1.317598958e-06 2.754997922e-06 )
( 0.002061822917 1.334928038e-05 9.674223293e-06 )
( 0.002083217492 1.313368102e-05 9.425168173e-06 )
( 0.001379476977 7.030459983e-06 6.953083357e-06 )
( 0.001362622017 7.177254702e-06 7.33502975e-06 )
( 0.003946570214 3.199371713e-05 1.214752592e-05 )
( 0.003970785532 3.128252865e-05 1.165262074e-05 )
( 0.003024229547 2.062730164e-05 1.032062573e-05 )
( 0.003001092467 2.0954516e-05 1.076166245e-05 )
( 0.00592344394 5.206159767e-05 1.275043724e-05 )
( 0.005021721125 3.916900096e-05 1.168021663e-05 )
( 0.005001602694 4.021264976e-05 1.183666427e-05 )
( 0.005941438023 5.03305273e-05 1.244837495e-05 )
( 0.004959666636 4.241635907e-05 1.227099619e-05 )
( 0.004981046077 4.120605809e-05 1.204424461e-05 )
( 0.0059745498 4.706091931e-05 1.18611506e-05 )
( 0.00595804397 4.876667299e-05 1.215434168e-05 )
( 0.004017252009 2.96338203e-05 1.066176264e-05 )
( 0.003994495142 3.048415965e-05 1.105279352e-05 )
( 0.002953405259 2.15781547e-05 1.14190716e-05 )
( 0.002977530938 2.124368439e-05 1.110939138e-05 )
( 0.002125106053 1.276047078e-05 8.887926015e-06 )
( 0.002104216954 1.297389008e-05 9.282341125e-06 )