/*--------------------------------*- C++ -*----------------------------------*\
  =========                 |
  \\      /  F ield         | OpenFOAM: The Open Source CFD Toolbox
   \\    /   O peration     | Website:  https://openfoam.org
    \\  /    A nd           | Version:  8
     \\/     M anipulation  |
\*---------------------------------------------------------------------------*/






FoamFile
{
    version     2.0;
    format      ascii;
    class       volScalarField;
    location    "0";
    object      V;
}
// * * * * * * * * * * * * * * * * * * * * * * * * * * * * * * * * * * * * * //

dimensions      [0 3 0 0 0 0 0];


internalField   nonuniform List<scalar> 
20307
(
0.0001115091816
0.0003186909325
0.0001117013177
0.0003193845584
0.0003408987064
0.0001117407964
0.0001009290785
0.0001118915352
0.0003198596758
0.0003414961785
0.0009335205161
0.0001010165441
3.330764379e-05
3.326103641e-05
0.0001119045597
0.0001010778646
0.0003202219637
0.0003421859595
0.0001120240368
0.0009368055942
3.328621708e-05
3.332728096e-05
2.86535038e-05
2.864736157e-05
0.0001011392805
3.334357849e-05
3.330732219e-05
0.000112116906
0.0003204828444
0.0003425611533
0.0001120210552
0.0001011803919
0.000938898517
2.866467434e-05
2.866933352e-05
2.456818745e-05
2.456110659e-05
3.332438964e-05
3.33564544e-05
2.868228044e-05
2.867872836e-05
0.0001121068464
0.000101252447
0.0003206830169
0.00034292946
0.0001121840477
0.0001012243431
3.336736724e-05
3.333899554e-05
0.0009402335854
0.0003431751639
2.45740061e-05
2.457971566e-05
2.175664693e-05
2.17515104e-05
2.869012188e-05
2.869282102e-05
2.458904914e-05
2.458439595e-05
0.0001012848086
3.338353308e-05
3.336119461e-05
0.0001122330627
0.0003208346035
0.0001121705307
0.0001013045191
3.335083728e-05
3.33760022e-05
2.870154166e-05
2.869949756e-05
0.0003435402244
0.0003433750833
0.0009410937113
2.176128056e-05
2.176540118e-05
2.112451746e-05
2.112032351e-05
2.45928295e-05
2.459663052e-05
2.177248974e-05
2.176916307e-05
3.336967027e-05
3.338952075e-05
2.871480473e-05
2.871358062e-05
0.0001122188864
0.0001013428411
0.0003209500588
0.0001122694954
0.0001013287383
3.33948446e-05
3.337722252e-05
2.870714931e-05
2.87087137e-05
2.460278142e-05
2.459968386e-05
0.0003436504667
0.0009416560437
0.0003437633141
2.11280937e-05
2.113170883e-05
1.707588996e-05
1.707318272e-05
2.177553425e-05
2.177824446e-05
2.113754635e-05
2.113485764e-05
2.871895488e-05
2.871989425e-05
2.461208811e-05
2.460989116e-05
0.0001013613291
3.340297332e-05
3.338901178e-05
0.0001122966668
0.0001122557765
0.0003210412781
0.0001013715759
3.338339404e-05
3.339907953e-05
2.872422327e-05
2.87235134e-05
2.460524507e-05
2.460782159e-05
2.178278648e-05
2.178068875e-05
0.0009420309489
0.0003439049288
0.0003438258827
0.0003211098963
1.707792064e-05
1.708067444e-05
1.38026695e-05
1.380095795e-05
2.114002848e-05
2.114248068e-05
1.708456996e-05
1.708288589e-05
2.4613831e-05
2.461567848e-05
2.17896377e-05
2.178811661e-05
3.339365632e-05
3.340608921e-05
2.873108928e-05
2.873061859e-05
0.0001013930353
0.0001122838613
0.0001013856985
0.0001123167814
3.340896184e-05
3.339791536e-05
2.872730846e-05
2.872786476e-05
2.461862993e-05
2.461710937e-05
2.17847053e-05
2.178645407e-05
2.114606372e-05
2.114446091e-05
0.0009422862693
0.0003439992473
0.0003439426699
0.0003212113655
0.0003211673376
0.0001123320339
0.0001123053974
1.380372206e-05
1.3805812e-05
1.115653245e-05
1.11554866e-05
1.708621997e-05
1.708820994e-05
1.380838247e-05
1.380735987e-05
2.179106837e-05
2.179235872e-05
2.115145253e-05
2.115026369e-05
2.873348144e-05
2.8733857e-05
2.462334483e-05
2.462216353e-05
3.341329258e-05
3.340457788e-05
0.000101403692
3.34013875e-05
3.341121031e-05
0.0001014088068
2.873625437e-05
2.873597487e-05
2.46198041e-05
2.462111386e-05
2.179444789e-05
2.179349618e-05
2.114737562e-05
2.114883983e-05
1.709047661e-05
1.708954843e-05
0.000344023638
0.0009424617482
0.000344064541
0.0003212808394
0.0003212506204
0.0001123540587
0.0001123360855
0.0001123221894
0.0001123439892
0.000101420517
0.0001014168481
1.115697654e-05
1.115855735e-05
9.017464145e-06
9.016859327e-06
1.38094655e-05
1.381106261e-05
1.116022301e-05
1.115963415e-05
2.115268481e-05
2.115387858e-05
1.709392116e-05
1.709322181e-05
2.46242795e-05
2.462530855e-05
2.179787863e-05
2.179704698e-05
2.874007123e-05
3.34071313e-05
2.873990773e-05
3.34148502e-05
2.873806802e-05
2.873828336e-05
3.341626663e-05
3.340944408e-05
2.462694002e-05
2.462609059e-05
2.179533173e-05
2.179618226e-05
2.115541018e-05
2.115487243e-05
1.709102562e-05
1.709209984e-05
1.381245667e-05
1.381195937e-05
0.0003213084448
0.0003440812073
0.0009425803112
0.0003441108801
0.0003213299688
0.0001123692459
0.0001123573668
0.0001123476752
0.0001123623868
0.0001014377731
0.0001014351351
0.0001014268433
0.0001014298176
3.34183054e-05
3.341294587e-05
3.341125687e-05
3.341730642e-05
9.017538724e-06
9.01872995e-06
7.28837567e-06
7.288060347e-06
1.116092104e-05
1.116219113e-05
9.019779671e-06
9.019471464e-06
1.709488055e-05
1.709589261e-05
1.381460354e-05
1.381421906e-05
2.179869278e-05
2.179944106e-05
2.115815115e-05
2.115745442e-05
2.462963115e-05
2.874144204e-05
2.462895264e-05
2.8741521e-05
2.462758648e-05
2.462834326e-05
2.874273257e-05
2.874270644e-05
2.180062749e-05
2.180009982e-05
2.115590963e-05
2.115669129e-05
1.709673019e-05
1.709671977e-05
1.381255389e-05
1.38133411e-05
1.116300977e-05
1.116278345e-05
0.0001123747659
0.00011236513
0.0003213504308
0.0009426546225
0.0003441222479
0.0003441427813
0.0003213665893
0.0001123717104
0.0001123797058
0.000101449738
0.000101448077
0.0001014422679
0.0001014444778
3.342120701e-05
3.341781828e-05
3.341672309e-05
3.34205187e-05
3.341430192e-05
3.341907605e-05
3.341987671e-05
3.341562632e-05
2.874456661e-05
2.874459705e-05
2.874372953e-05
2.874372063e-05
7.288235772e-06
7.289128414e-06
5.890740713e-06
5.890612573e-06
9.020216152e-06
9.021219374e-06
7.289761536e-06
7.289632718e-06
1.381534885e-05
1.381618889e-05
1.116429656e-05
1.116410943e-05
2.115901551e-05
2.115977388e-05
1.709844858e-05
1.709803967e-05
2.180281419e-05
2.463012237e-05
2.180224033e-05
2.463064476e-05
2.180111689e-05
2.180162878e-05
2.463146667e-05
2.463102371e-05
2.116080076e-05
2.116039775e-05
1.70967692e-05
1.70974434e-05
1.381659126e-05
1.381686674e-05
1.116285279e-05
1.116342762e-05
9.021661098e-06
9.021602307e-06
0.0001014538262
0.0001014525201
0.000112377507
0.0001123842206
0.0009426926394
0.0003441615529
0.0003441493892
0.0003213815866
0.0003213928509
0.0001123827485
0.0001123882428
0.0001014561585
0.0001014574345
3.342299685e-05
3.342090436e-05
3.342028729e-05
3.342265698e-05
3.341873406e-05
3.342175818e-05
3.342229067e-05
3.341961319e-05
2.874685851e-05
2.874690654e-05
2.874645613e-05
2.874639804e-05
2.874531108e-05
2.874527152e-05
2.874589253e-05
2.874594069e-05
2.463270262e-05
2.463240603e-05
2.463178564e-05
2.463215651e-05
5.890485289e-06
5.891150302e-06
4.761055874e-06
4.761045906e-06
7.290021386e-06
7.290808715e-06
5.891503194e-06
5.891486339e-06
1.116487102e-05
1.11655597e-05
9.022382001e-06
9.02231721e-06
1.709928498e-05
1.709991871e-05
1.38176336e-05
1.381740827e-05
2.180323757e-05
2.116311298e-05
2.116216012e-05
2.18035603e-05
2.116096601e-05
2.116140896e-05
2.180422111e-05
2.180387149e-05
1.710057914e-05
1.710041245e-05
1.381637815e-05
1.381694624e-05
1.116569403e-05
1.11661079e-05
9.021372901e-06
9.021790414e-06
7.291007957e-06
7.291048149e-06
3.342345501e-05
3.342181115e-05
3.342136914e-05
3.342322601e-05
0.0001014596294
0.0001014609846
0.0009427007864
0.0003441636493
0.0003441681983
0.0003214086782
0.0003214025424
0.0001123915877
0.0001123871149
0.0001123945118
0.0001123908437
0.0001014629362
0.0001014640462
3.342215093e-05
3.342360791e-05
3.342381221e-05
3.342250228e-05
2.874794705e-05
2.87480437e-05
2.874787117e-05
2.874777933e-05
2.874730552e-05
2.874725577e-05
2.874756749e-05
2.874764273e-05
2.463380935e-05
2.463371683e-05
2.463356331e-05
2.463367328e-05
2.463289932e-05
2.463314177e-05
2.463347782e-05
2.463329785e-05
2.180524691e-05
2.180505065e-05
2.180454531e-05
2.180481128e-05
4.76074665e-06
4.761239107e-06
3.847972559e-06
3.848034419e-06
5.891645483e-06
5.892259286e-06
4.761406142e-06
4.761455946e-06
9.022822656e-06
9.023380981e-06
7.291359714e-06
7.291369295e-06
1.381839427e-05
1.381891438e-05
1.116629194e-05
1.116618267e-05
2.116354488e-05
1.710245969e-05
1.7101217e-05
2.116328916e-05
1.710025157e-05
1.71004723e-05
2.116431445e-05
2.116384601e-05
1.381932839e-05
1.381930273e-05
1.116535733e-05
1.116582712e-05
9.023355983e-06
9.023819611e-06
7.29066284e-06
7.290964012e-06
5.892305858e-06
5.89240091e-06
2.874814461e-05
2.874825022e-05
2.874816134e-05
2.874806398e-05
3.342284359e-05
3.342402756e-05
3.342429169e-05
3.34232414e-05
0.0003441656312
0.000344166849
0.0003214126802
0.0003214135714
0.0001123984086
0.0001123963708
0.0001123968557
0.0001123939666
0.0001014664983
0.0001014655716
0.0001014687735
0.0001014678546
3.342357416e-05
3.34244761e-05
3.342460205e-05
3.342384371e-05
2.874827108e-05
2.874814368e-05
2.874814007e-05
2.874824223e-05
2.46338908e-05
2.463389827e-05
2.463392982e-05
2.463392794e-05
2.463386208e-05
2.463394057e-05
2.463396595e-05
2.46339509e-05
2.180578138e-05
2.180581052e-05
2.180587515e-05
2.180584846e-05
2.180543094e-05
2.180559278e-05
2.180584101e-05
2.180575108e-05
2.116540239e-05
2.11652103e-05
2.11645812e-05
2.116496532e-05
3.847647773e-06
3.848009404e-06
3.109974876e-06
3.110077376e-06
4.761470806e-06
4.761946768e-06
3.848055709e-06
3.848143039e-06
7.29169707e-06
7.292145005e-06
5.892421822e-06
5.8924737e-06
1.116695811e-05
1.116738038e-05
9.023664873e-06
9.023627431e-06
1.710277399e-05
1.382083614e-05
1.381952827e-05
1.710161003e-05
1.381875718e-05
1.381884131e-05
1.710285466e-05
1.710239802e-05
1.116762809e-05
1.11676829e-05
9.022972727e-06
9.023354857e-06
7.29203065e-06
7.292492993e-06
5.891948599e-06
5.892163402e-06
4.761899765e-06
4.762022176e-06
2.463376183e-05
2.463379775e-05
2.463384824e-05
2.463383419e-05
2.874824968e-05
2.874818856e-05
2.874826809e-05
2.874831263e-05
0.0003214106077
0.0003214127797
0.0001123977631
0.000112399031
0.0001123989468
0.0001123983039
0.0001014722275
0.0001014717852
0.0001014708464
0.0001014700144
3.34247738e-05
3.342420055e-05
3.342401608e-05
3.34246707e-05
3.342504719e-05
3.342462301e-05
3.342439144e-05
3.342488967e-05
2.874836006e-05
2.874828174e-05
2.874819404e-05
2.87483132e-05
2.463366199e-05
2.463354159e-05
2.463328922e-05
2.463339572e-05
2.180528139e-05
2.180536734e-05
2.180551445e-05
2.180542938e-05
2.180580641e-05
2.180583033e-05
2.18056482e-05
2.180578205e-05
2.116603652e-05
2.116613477e-05
2.116625564e-05
2.116617723e-05
2.116562722e-05
2.116585815e-05
2.116633999e-05
2.116607325e-05
1.710349343e-05
1.71034181e-05
1.710288602e-05
1.710328873e-05
3.109657376e-06
3.109920001e-06
3.848070082e-06
3.848437266e-06
3.109890251e-06
3.109996001e-06
5.89267857e-06
5.893035573e-06
4.761869732e-06
4.761943107e-06
9.02423318e-06
9.024573455e-06
7.292154665e-06
7.292160244e-06
1.382106261e-05
1.116882296e-05
1.116757096e-05
1.381949121e-05
1.116696279e-05
1.116696451e-05
1.382075935e-05
1.382034503e-05
9.024709615e-06
9.024806623e-06
7.291644894e-06
7.2919525e-06
5.89287584e-06
5.893309195e-06
4.761556146e-06
4.76170741e-06
3.848336294e-06
3.848468819e-06
2.180498628e-05
2.180503644e-05
2.180517848e-05
2.180506746e-05
2.463319285e-05
2.463313018e-05
2.463300996e-05
2.463305986e-05
0.0001123975018
0.0001123975931
0.0001123981293
0.0001123982804
0.0001014726701
0.0001014727894
0.0001014729112
0.0001014729766
3.342574844e-05
3.342560287e-05
3.342566607e-05
3.342543079e-05
3.342548343e-05
3.342516009e-05
3.342486585e-05
3.342523881e-05
2.874801203e-05
2.87480858e-05
2.874818935e-05
2.874808218e-05
2.874799156e-05
2.874801088e-05
2.874802713e-05
2.874798101e-05
2.463293535e-05
2.463283521e-05
2.46325004e-05
2.463267918e-05
2.180481181e-05
2.180453072e-05
2.180403217e-05
2.180422421e-05
2.116541603e-05
2.116551925e-05
2.116562167e-05
2.116566583e-05
2.116601774e-05
2.116636577e-05
2.116582638e-05
2.116637383e-05
1.710389714e-05
1.710408093e-05
1.710425077e-05
1.710410684e-05
1.710367235e-05
1.710388406e-05
1.710452066e-05
1.710407935e-05
1.382110462e-05
1.382109829e-05
1.382066084e-05
1.382104307e-05
3.109873126e-06
3.110154751e-06
4.762064009e-06
4.762346748e-06
3.84821975e-06
3.848302143e-06
7.292630811e-06
7.292902091e-06
5.892884026e-06
5.89291465e-06
1.116898464e-05
9.025647461e-06
9.024511076e-06
1.11672984e-05
9.024035677e-06
9.023990773e-06
1.116848671e-05
1.11681256e-05
7.292965678e-06
7.293081091e-06
5.892511641e-06
5.89275688e-06
4.762169011e-06
4.76256058e-06
3.848019492e-06
3.848124154e-06
3.110026127e-06
3.110157876e-06
2.116527755e-05
2.11647869e-05
2.11652766e-05
2.116499048e-05
2.180387832e-05
2.18037263e-05
2.180344893e-05
2.180356851e-05
0.0001014721552
0.0001014723082
0.0001014728212
0.0001014725317
3.34256871e-05
3.342579327e-05
3.342586914e-05
3.342578627e-05
3.342608696e-05
3.34260516e-05
3.342590821e-05
3.342597174e-05
2.87484429e-05
2.874845969e-05
2.874843465e-05
2.874838993e-05
2.874827613e-05
2.874818303e-05
2.874804101e-05
2.874807289e-05
2.46319133e-05
2.46320339e-05
2.463232305e-05
2.46321743e-05
2.463152663e-05
2.463160478e-05
2.463179309e-05
2.463169512e-05
2.180334156e-05
2.18031925e-05
2.180253681e-05
2.18028839e-05
2.11650271e-05
2.11639596e-05
2.116341585e-05
2.116382005e-05
1.710356748e-05
1.710359595e-05
1.71034877e-05
1.710378112e-05
1.710379939e-05
1.710456034e-05
1.710367707e-05
1.710468804e-05
1.382135465e-05
1.382157029e-05
1.382175421e-05
1.382158555e-05
1.382124473e-05
1.382143054e-05
1.382210365e-05
1.382160127e-05
1.116864198e-05
1.116867602e-05
1.116832318e-05
1.116866496e-05
3.848365922e-06
3.848588519e-06
3.109862253e-06
3.109946003e-06
5.893278198e-06
5.893492543e-06
4.762107769e-06
4.762151127e-06
9.0257605e-06
7.293694668e-06
7.292698202e-06
9.024123048e-06
7.29232879e-06
7.292260068e-06
9.025183905e-06
9.024877727e-06
5.893509466e-06
5.8936291e-06
4.761838241e-06
4.762032377e-06
3.848409277e-06
3.848754967e-06
3.109741628e-06
3.109812253e-06
1.710406889e-05
1.710275656e-05
1.710350566e-05
1.710311322e-05
2.116321946e-05
2.116323915e-05
2.11624757e-05
2.11627889e-05
3.342637152e-05
3.342634943e-05
3.34262546e-05
3.34262436e-05
3.342616391e-05
3.342616274e-05
3.342619572e-05
3.342622e-05
2.874845523e-05
2.874847783e-05
2.874860516e-05
2.874853376e-05
2.874907407e-05
2.874893658e-05
2.874869634e-05
2.874881109e-05
2.463160885e-05
2.463168666e-05
2.463174485e-05
2.463171652e-05
2.463160101e-05
2.463148092e-05
2.463145543e-05
2.463143036e-05
2.180154655e-05
2.180178748e-05
2.180222059e-05
2.180200479e-05
2.180077663e-05
2.180094193e-05
2.180131296e-05
2.180113061e-05
2.116278568e-05
2.116249969e-05
2.116119606e-05
2.116203253e-05
1.710388938e-05
1.710198857e-05
1.710182759e-05
1.710234287e-05
1.382121648e-05
1.38212012e-05
1.382098439e-05
1.382139199e-05
1.38212245e-05
1.382215315e-05
1.382115175e-05
1.382233816e-05
1.116879098e-05
1.116900826e-05
1.11691865e-05
1.116901646e-05
1.11687507e-05
1.11689087e-05
1.116955481e-05
1.11690544e-05
9.025218816e-06
9.025273593e-06
9.0249941e-06
9.025289238e-06
3.109971628e-06
3.110145878e-06
4.76243063e-06
4.762599315e-06
3.848309434e-06
3.848357967e-06
7.293772087e-06
5.894071434e-06
5.89321724e-06
7.29226666e-06
5.892932773e-06
5.892853395e-06
7.293184702e-06
7.292930656e-06
4.762586675e-06
4.762702361e-06
3.848116692e-06
3.848269227e-06
3.109974753e-06
3.110274503e-06
1.382203286e-05
1.382037173e-05
1.382120208e-05
1.382078245e-05
1.710173425e-05
1.710215617e-05
1.710106308e-05
1.710148632e-05
2.874988166e-05
2.874972974e-05
2.874951647e-05
2.87496171e-05
2.87491922e-05
2.874929522e-05
2.874944528e-05
2.874937024e-05
2.463158259e-05
2.463161352e-05
2.463177918e-05
2.463168474e-05
2.463248225e-05
2.463225892e-05
2.463189845e-05
2.463205783e-05
2.180032151e-05
2.180057299e-05
2.180088042e-05
2.180087918e-05
2.18006136e-05
2.180035142e-05
2.180057756e-05
2.180039253e-05
2.115983148e-05
2.116040281e-05
2.116078132e-05
2.116048568e-05
2.115830494e-05
2.115902119e-05
2.115927179e-05
2.11592056e-05
1.710209217e-05
1.710179599e-05
1.710022204e-05
1.710140727e-05
1.382190573e-05
1.381969685e-05
1.381975564e-05
1.382029003e-05
1.116877531e-05
1.116873605e-05
1.11684734e-05
1.116891541e-05
1.116865299e-05
1.116961072e-05
1.116861575e-05
1.116981468e-05
9.025301795e-06
9.025504524e-06
9.025667413e-06
9.025507809e-06
9.0253023e-06
9.025433792e-06
9.026021786e-06
9.025555606e-06
7.293145883e-06
7.293209856e-06
7.292991463e-06
7.293240313e-06
3.848571677e-06
3.848703719e-06
3.109856003e-06
3.109905378e-06
5.894122741e-06
4.763016596e-06
4.762295768e-06
5.892785274e-06
4.76207858e-06
4.761997088e-06
5.893562496e-06
5.893354942e-06
3.84867363e-06
3.848780932e-06
3.109720503e-06
3.109839378e-06
1.116971342e-05
1.116797504e-05
1.116878926e-05
1.116838529e-05
1.381972638e-05
1.382033766e-05
1.381915398e-05
1.381960128e-05
2.463374823e-05
2.463354179e-05
2.463321641e-05
2.463336526e-05
2.463268685e-05
2.463285079e-05
2.463308926e-05
2.46329775e-05
2.180026991e-05
2.180033411e-05
2.180052943e-05
2.180044018e-05
2.180148862e-05
2.180113352e-05
2.18006542e-05
2.180082313e-05
2.115715709e-05
2.115767375e-05
2.115879969e-05
2.11595684e-05
2.115778742e-05
2.115701653e-05
2.115838559e-05
2.115789789e-05
1.709941741e-05
1.710015535e-05
1.709997363e-05
1.709980152e-05
1.709790531e-05
1.709912316e-05
1.709869541e-05
1.709903556e-05
1.382049923e-05
1.382022177e-05
1.381861923e-05
1.381990526e-05
1.116962472e-05
1.116740198e-05
1.116757922e-05
1.116808577e-05
9.025361979e-06
9.025311065e-06
9.025039027e-06
9.025470902e-06
9.025169573e-06
9.026080172e-06
9.025156894e-06
9.026281725e-06
7.293186222e-06
7.293367279e-06
7.293510941e-06
7.293367529e-06
7.293209536e-06
7.293317705e-06
7.293834077e-06
7.293417383e-06
5.893481467e-06
5.89354718e-06
5.893378641e-06
5.893584773e-06
3.110067878e-06
3.110170503e-06
4.763048765e-06
3.848999781e-06
3.848398467e-06
4.761887263e-06
3.848233989e-06
3.848155508e-06
4.762535489e-06
4.762367456e-06
3.110131128e-06
3.110227878e-06
9.026308765e-06
9.024643813e-06
9.025391019e-06
9.025024126e-06
1.116759019e-05
1.11682649e-05
1.116711952e-05
1.116754541e-05
2.18030278e-05
2.180277904e-05
2.180238185e-05
2.180256999e-05
2.180180494e-05
2.180200645e-05
2.180224747e-05
2.180212342e-05
2.115708805e-05
2.115740114e-05
2.115750838e-05
2.115746807e-05
2.115888874e-05
2.115793566e-05
2.11575277e-05
2.115777813e-05
1.709718052e-05
1.709778125e-05
1.709965087e-05
1.710136064e-05
1.709761763e-05
1.709621226e-05
1.709865576e-05
1.709804756e-05
1.381818267e-05
1.381895446e-05
1.381848022e-05
1.381838955e-05
1.381679676e-05
1.381819351e-05
1.381742736e-05
1.381796369e-05
1.116854673e-05
1.116830069e-05
1.116679863e-05
1.116804791e-05
9.026248795e-06
9.024168854e-06
9.024401704e-06
9.024857256e-06
7.293290509e-06
7.293235892e-06
7.292974487e-06
7.293373868e-06
7.293067031e-06
7.293892512e-06
7.293070849e-06
7.294080676e-06
5.893494362e-06
5.893651543e-06
5.893774964e-06
5.893650271e-06
5.8935291e-06
5.893616859e-06
5.894060346e-06
5.893697942e-06
4.762432368e-06
4.762495462e-06
4.76236721e-06
4.762535748e-06
3.849018271e-06
3.110376253e-06
3.109879128e-06
3.848025593e-06
3.109755628e-06
3.109683003e-06
3.848559985e-06
3.84842519e-06
7.294184629e-06
7.292668231e-06
7.293327173e-06
7.293005613e-06
9.024436349e-06
9.025102235e-06
9.024059958e-06
9.024443122e-06
2.116012547e-05
2.116006011e-05
2.115953733e-05
2.115969382e-05
2.115938442e-05
2.115930513e-05
2.115948576e-05
2.1159478e-05
1.709716452e-05
1.709780848e-05
1.709773883e-05
1.709778547e-05
1.709921268e-05
1.709763755e-05
1.709757151e-05
1.709785976e-05
1.381636105e-05
1.381696792e-05
1.381910333e-05
1.382119588e-05
1.381666312e-05
1.381501286e-05
1.38178548e-05
1.38172264e-05
1.116659922e-05
1.11673351e-05
1.116672903e-05
1.116669175e-05
1.116538758e-05
1.116678106e-05
1.116588092e-05
1.116648928e-05
9.025438812e-06
9.025228861e-06
9.023886183e-06
9.025030287e-06
7.294145613e-06
7.292281851e-06
7.292532749e-06
7.292927981e-06
5.893621699e-06
5.893567637e-06
5.893327312e-06
5.893684131e-06
5.89339068e-06
5.894117141e-06
5.893405613e-06
5.894286316e-06
4.762428405e-06
4.762562083e-06
4.762666222e-06
4.762559484e-06
4.76246741e-06
4.762537851e-06
4.762912995e-06
4.762603608e-06
3.848447781e-06
3.848506377e-06
3.848409932e-06
3.848546322e-06
3.110385378e-06
3.109546503e-06
3.109983128e-06
3.109876128e-06
5.894433589e-06
5.893094677e-06
5.893661027e-06
5.893385903e-06
7.292579251e-06
7.293199035e-06
7.292285921e-06
7.292617986e-06
1.70995771e-05
1.709982517e-05
1.709922673e-05
1.709929195e-05
1.709979056e-05
1.709924749e-05
1.709930813e-05
1.709947644e-05
1.381637361e-05
1.381714939e-05
1.381698734e-05
1.381707739e-05
1.381839966e-05
1.381660514e-05
1.381672929e-05
1.381701496e-05
1.116514772e-05
1.11657174e-05
1.116785082e-05
1.117000547e-05
1.116535407e-05
1.116368274e-05
1.116653977e-05
1.116594602e-05
9.023837748e-06
9.02450201e-06
9.023861197e-06
9.023856887e-06
9.022809563e-06
9.02410643e-06
9.0231893e-06
9.023798345e-06
7.293549885e-06
7.29337593e-06
7.292211101e-06
7.293221518e-06
5.894409239e-06
5.892784648e-06
5.893032168e-06
5.893367759e-06
4.762564961e-06
4.762513631e-06
4.762299167e-06
4.762610077e-06
4.762340006e-06
4.762966819e-06
4.762361641e-06
4.763115257e-06
3.848434192e-06
3.848546212e-06
3.848633147e-06
3.848542687e-06
3.848473309e-06
3.848529538e-06
3.848842837e-06
3.848582249e-06
3.109870628e-06
3.109923253e-06
3.109851878e-06
3.109961378e-06
4.763282905e-06
4.762125858e-06
4.762603632e-06
4.762372018e-06
5.893083734e-06
5.893639936e-06
5.892859713e-06
5.893140979e-06
1.381824712e-05
1.381864851e-05
1.381805826e-05
1.381806646e-05
1.381897941e-05
1.381822344e-05
1.381820849e-05
1.381846281e-05
1.116517445e-05
1.116596647e-05
1.116576439e-05
1.116587273e-05
1.116704055e-05
1.116525184e-05
1.116547274e-05
1.116573588e-05
9.0227017e-06
9.023213432e-06
9.025204274e-06
9.027246157e-06
9.022841217e-06
9.021267346e-06
9.023937652e-06
9.023403954e-06
7.292255691e-06
7.292835563e-06
7.292214113e-06
7.292230028e-06
7.291401869e-06
7.292559769e-06
7.291689932e-06
7.292260599e-06
5.893981487e-06
5.893840294e-06
5.892850843e-06
5.89372113e-06
4.763269212e-06
4.761879972e-06
4.762111773e-06
4.762392422e-06
3.848570499e-06
3.848523773e-06
3.848335956e-06
3.848602342e-06
3.848359958e-06
3.848892891e-06
3.848385174e-06
3.849021238e-06
3.109851503e-06
3.109944503e-06
3.110016253e-06
3.109940753e-06
3.109888753e-06
3.109933128e-06
3.110192628e-06
3.109975253e-06
3.849194315e-06
3.84820947e-06
3.848607162e-06
3.848414813e-06
4.762164376e-06
4.762651479e-06
4.761996915e-06
4.762230815e-06
1.116659866e-05
1.116705802e-05
1.116651816e-05
1.116649198e-05
1.116757908e-05
1.116675858e-05
1.116669705e-05
1.116698427e-05
9.02273342e-06
9.023480776e-06
9.023267623e-06
9.023380652e-06
9.024379953e-06
9.022715664e-06
9.022977464e-06
9.023208589e-06
7.291380687e-06
7.291828412e-06
7.293610619e-06
7.29545678e-06
7.291473449e-06
7.290054006e-06
7.292444554e-06
7.291980295e-06
5.892949586e-06
5.893443975e-06
5.892870138e-06
5.892898199e-06
5.892252199e-06
5.893257516e-06
5.8924667e-06
5.892981324e-06
4.76297056e-06
4.76285787e-06
4.762030102e-06
4.762767065e-06
3.849188241e-06
3.848016691e-06
3.84822675e-06
3.848458403e-06
3.109982253e-06
3.109940503e-06
3.109778128e-06
3.110004003e-06
3.109790253e-06
3.110238378e-06
3.109817003e-06
3.110348003e-06
3.110517378e-06
3.109688128e-06
3.110015878e-06
3.109857753e-06
3.848277627e-06
3.848697184e-06
3.848155438e-06
3.848347163e-06
9.023794388e-06
9.024255818e-06
9.023784012e-06
9.023738141e-06
9.024859044e-06
9.024055991e-06
9.023968859e-06
9.024257179e-06
7.29141303e-06
7.292086119e-06
7.291879444e-06
7.291988747e-06
7.292825058e-06
7.29133907e-06
7.291607964e-06
7.291805575e-06
5.892286022e-06
5.892669999e-06
5.894223126e-06
5.895842719e-06
5.892345793e-06
5.891101247e-06
5.893181772e-06
5.892786582e-06
4.762157119e-06
4.762572132e-06
4.762058554e-06
4.762092367e-06
4.761595039e-06
4.762451262e-06
4.761751879e-06
4.762204274e-06
3.848987368e-06
3.848898678e-06
3.848214092e-06
3.848830046e-06
3.110516503e-06
3.109538378e-06
3.109724878e-06
3.109914378e-06
3.109772503e-06
3.110129378e-06
3.109685503e-06
3.109841253e-06
7.292185686e-06
7.292619187e-06
7.292219137e-06
7.292164163e-06
7.293239185e-06
7.292496443e-06
7.292397558e-06
7.292669245e-06
5.892316168e-06
5.8929046e-06
5.89271378e-06
5.892814729e-06
5.893503394e-06
5.892211761e-06
5.892468539e-06
5.892634612e-06
4.761662197e-06
4.76198659e-06
4.763315692e-06
4.764707019e-06
4.761698803e-06
4.760628266e-06
4.762404454e-06
4.762072938e-06
3.848352422e-06
3.848697066e-06
3.848246548e-06
3.848282252e-06
3.847904193e-06
3.848623633e-06
3.848016676e-06
3.848407283e-06
3.110388503e-06
3.110319503e-06
3.109758128e-06
3.110268253e-06
5.892864279e-06
5.893255989e-06
5.892923695e-06
5.892866219e-06
5.89385393e-06
5.893191184e-06
5.89308897e-06
5.893335296e-06
4.761688455e-06
4.76219305e-06
4.762021916e-06
4.762112349e-06
4.762672732e-06
4.761570511e-06
4.761805891e-06
4.76194315e-06
3.847989565e-06
3.848261089e-06
3.849383512e-06
3.850561241e-06
3.848010312e-06
3.847101954e-06
3.84859745e-06
3.84832266e-06
3.109897628e-06
3.110180878e-06
3.109791628e-06
3.109827128e-06
3.109543128e-06
3.110141628e-06
3.109621628e-06
3.109954878e-06
4.762065161e-06
4.762410178e-06
4.762138579e-06
4.762081581e-06
4.762965007e-06
4.762387326e-06
4.762286894e-06
4.762505288e-06
3.848012008e-06
3.848438479e-06
3.848288047e-06
3.848367356e-06
3.848818998e-06
3.847890802e-06
3.848101378e-06
3.84821322e-06
3.109636503e-06
3.109862378e-06
3.110800628e-06
3.111786878e-06
3.109646753e-06
3.108883628e-06
3.110129753e-06
3.109904003e-06
3.848259348e-06
3.848557922e-06
3.848338898e-06
3.848284776e-06
3.849060143e-06
3.848564542e-06
3.848469593e-06
3.848659848e-06
3.109655378e-06
3.110012128e-06
3.109881628e-06
3.109950253e-06
3.110311253e-06
3.109537753e-06
3.109722378e-06
3.109812628e-06
3.109807003e-06
3.110062128e-06
3.109887128e-06
3.109837378e-06
3.110508628e-06
3.110088628e-06
3.110001003e-06
3.110164503e-06
3.109945832e-06
3.839372409e-06
3.109546086e-06
4.739678721e-06
3.839490789e-06
3.109449589e-06
5.850788031e-06
4.740597283e-06
3.839930509e-06
3.109773967e-06
7.221895677e-06
5.852902346e-06
4.741842847e-06
3.840834629e-06
3.110190969e-06
8.913591201e-06
7.225754765e-06
5.855326262e-06
4.743588178e-06
3.841814223e-06
3.109701222e-06
1.100045123e-05
8.919955562e-06
7.22987085e-06
5.858268698e-06
4.745376861e-06
3.841683132e-06
3.109745224e-06
1.357420071e-05
1.101037385e-05
8.926468881e-06
7.234492273e-06
5.861200645e-06
4.745816927e-06
3.842157025e-06
3.110033351e-06
1.674754768e-05
1.358913653e-05
1.102024986e-05
8.933420009e-06
7.239017741e-06
5.862512941e-06
4.746929257e-06
3.842894199e-06
3.109772228e-06
2.065882161e-05
1.676950975e-05
1.360369564e-05
1.10304049e-05
8.940142414e-06
7.241626043e-06
5.864551029e-06
4.748316149e-06
3.842952006e-06
3.10963023e-06
2.118145346e-05
2.069059925e-05
1.679055774e-05
1.361823045e-05
1.104013352e-05
8.944642513e-06
7.244984307e-06
5.866860107e-06
4.748868934e-06
3.843127624e-06
3.109471607e-06
2.121925778e-05
2.37857122e-05
2.072061117e-05
1.681105353e-05
1.363204681e-05
1.104735936e-05
8.949859646e-06
7.248584459e-06
5.868156089e-06
4.749529707e-06
3.84326206e-06
3.109860983e-06
2.125509541e-05
2.383575646e-05
2.758724666e-05
2.074919041e-05
1.683039953e-05
1.364316634e-05
1.105517112e-05
8.955249067e-06
7.250970356e-06
5.869535613e-06
4.750113953e-06
3.84402951e-06
3.110198734e-06
2.128865305e-05
2.388057197e-05
2.763636318e-05
3.175976508e-05
2.077599116e-05
1.684704959e-05
1.365457413e-05
1.106301817e-05
8.959206682e-06
7.253392674e-06
5.870788492e-06
4.751417858e-06
3.844716106e-06
3.10992411e-06
2.132038578e-05
2.392528178e-05
2.771093854e-05
3.200038416e-05
9.592789676e-05
2.080047017e-05
1.686342089e-05
1.366577769e-05
1.106921925e-05
8.96312076e-06
7.255619227e-06
5.872842741e-06
4.752601752e-06
3.844655945e-06
3.109800487e-06
2.134994135e-05
2.3965081e-05
2.775432486e-05
3.192440122e-05
0.0001052763983
9.641675592e-05
2.082367157e-05
1.687918693e-05
1.367515498e-05
1.10752448e-05
8.966743815e-06
7.258709635e-06
5.874723181e-06
4.752882114e-06
3.844758382e-06
3.110155613e-06
2.137787843e-05
2.400490469e-05
2.782154838e-05
3.214943074e-05
0.0003000101301
0.000106273194
9.69284877e-05
2.084561875e-05
1.68930368e-05
1.368414863e-05
1.108085062e-05
8.971252144e-06
7.261554666e-06
5.875523266e-06
4.75333166e-06
3.845415516e-06
3.110010989e-06
2.140392109e-05
2.404022724e-05
2.785970118e-05
3.207101675e-05
0.0003034021767
0.0003193197954
0.0001064738112
9.732971856e-05
3.228100962e-05
2.086574951e-05
1.690618239e-05
1.369254788e-05
1.108728334e-05
8.975420184e-06
7.263127531e-06
5.876489428e-06
4.754414155e-06
3.845462446e-06
3.109461865e-06
2.142855472e-05
2.40756539e-05
2.792093159e-05
0.0003063300192
0.0001073471553
0.0003231551719
0.0008786896997
3.24016307e-05
9.775521442e-05
3.22061425e-05
2.088468545e-05
1.691849875e-05
1.370157824e-05
1.109325247e-05
8.978120411e-06
7.264845507e-06
5.878162896e-06
4.754758226e-06
3.84501405e-06
3.109217991e-06
2.145149035e-05
2.410691923e-05
2.795441427e-05
0.0001074796207
0.0003087792612
0.0003261425091
0.0001082408926
0.0008948553535
0.000920697106
3.232570037e-05
9.808190763e-05
3.250743659e-05
2.090248081e-05
1.693102006e-05
1.370998366e-05
1.10975774e-05
8.980917743e-06
7.267330105e-06
5.878951268e-06
4.754500241e-06
3.844917073e-06
3.109848617e-06
2.147331967e-05
2.41384582e-05
2.80094127e-05
0.0001089833846
0.0003291343061
0.0001083218576
0.0003108916824
0.0009353824926
0.0009076297463
0.0009590384326
3.260459555e-05
9.843484883e-05
3.243596102e-05
2.80387653e-05
2.091967307e-05
1.694270338e-05
1.371663119e-05
1.11019078e-05
8.984504267e-06
7.268768937e-06
5.879016857e-06
4.754640998e-06
3.845851096e-06
3.110348993e-06
2.149375028e-05
2.416626814e-05
9.870010423e-05
0.0001090230944
0.0003312655311
0.0003126304404
0.0001095961849
0.0009731051338
0.0009476147591
0.0009174118349
0.0003335482685