/*--------------------------------*- C++ -*----------------------------------*\
  =========                 |
  \\      /  F ield         | OpenFOAM: The Open Source CFD Toolbox
   \\    /   O peration     | Website:  https://openfoam.org
    \\  /    A nd           | Version:  8
     \\/     M anipulation  |
\*---------------------------------------------------------------------------*/






FoamFile
{
    version     2.0;
    format      ascii;
    class       volScalarField;
    location    "0";
    object      pDDES;
}
// * * * * * * * * * * * * * * * * * * * * * * * * * * * * * * * * * * * * * //

dimensions      [0 2 -2 0 0 0 0];


internalField   nonuniform List<scalar> 
20961
(
0.0001152931218
0.0001197230886
0.0001179963074
0.0001245410822
0.0001228477922
0.000120679375
0.0001280450524
0.0001271411456
0.0001289619831
0.000126020037
0.0001232761133
0.00013164751
0.0001308168285
0.0001327032223
0.0001318609284
0.0001337823633
0.0001291425724
0.0001256865798
0.0001346148929
0.0001365544158
0.0001352980762
0.0001357523142
0.0001377633307
0.0001343919721
0.0001345369237
0.0001365036733
0.0001363554475
0.0001321711316
0.0001277902047
0.0001398205059
0.0001419250038
0.0001411216217
0.0001420300978
0.0001432390563
0.0001356521389
0.0001383634954
0.0001385156356
0.0001405823423
0.0001404266077
0.0001357354631
0.0001365422504
0.0001385302749
0.0001377049484
0.0001373117702
0.0001349740924
0.0001294084213
0.0001425429655
0.0001427041716
0.0001440907654
0.0001448893599
0.0001447212271
0.000145383543
0.0001440451451
0.0001463279186
0.0001397272863
0.0001405768126
0.0001426701056
0.0001417987805
0.0001373693958
0.000137399431
0.0001383892522
0.0001383587078
0.0001403903734
0.0001403592323
0.0001393404236
0.0001393714338
0.0001388989185
0.0001438326435
0.000137364128
0.000130193861
0.0001439326588
0.0001448343683
0.0001469760609
0.0001471544383
0.0001470691059
0.0001461409993
0.0001486079418
0.0001475702884
0.0001460063213
0.0001495150645
0.0001493248274
0.0001413649588
0.0001413969003
0.0001424398797
0.0001424079819
0.0001445435919
0.0001445102389
0.0001434441219
0.0001434766164
0.0001382279443
0.0001386828808
0.0001396658045
0.0001392051927
0.0001416708546
0.0001411947014
0.0001401823683
0.0001406611555
0.0001478987979
0.0001454083103
0.0001468494156
0.0001389787649
0.0001301997981
0.0001455646561
0.0001455993624
0.0001467282127
0.0001466931571
0.0001484211243
0.0001493892778
0.000149012747
0.000148977444
0.00014780942
0.0001478448248
0.0001521896047
0.00015244112
0.0001531989255
0.0001487664413
0.0001497104677
0.0001513568277
0.0001518397476
0.0001508146088
0.0001421979687
0.0001426820963
0.0001437312021
0.0001432348217
0.0001457955659
0.0001453297446
0.0001442723005
0.0001447708055
0.0001392525155
0.0001396488515
0.0001406283554
0.0001402288908
0.0001426248346
0.0001422152272
0.0001412113197
0.0001416230953
0.0001496920158
0.0001517973578
0.0001513834286
0.0001470142161
0.0001482689986
0.0001396783045
0.0001440999768
0.0001345353667
0.0001408574317
0.0001463759254
0.0001468937553
0.0001480292412
0.0001475056633
0.0001501258812
0.000150161708
0.0001513592142
0.0001513206807
0.0001503636304
0.0001498065976
0.0001486317487
0.0001491846051
0.0001532689203
0.0001547752327
0.000154298803
0.0001542744867
0.0001536405034
0.0001538249198
0.0001537729695
0.0001537302014
0.0001526114647
0.0001526568667
0.0001432161371
0.0001436338935
0.0001446737442
0.0001442429202
0.0001467689726
0.0001463323715
0.000145296246
0.0001457241306
0.000139791533
0.0001402797207
0.0001412508718
0.0001407578093
0.0001432418503
0.0001427333045
0.0001417382882
0.0001422435744
0.0001537920616
0.0001557833311
0.0001555983472
0.0001529446163
0.000156333248
0.0001538367069
0.0001493707241
0.0001543458784
0.0001453313453
0.0001366664073
0.0001399870816
0.0001439459738
0.0001473942684
0.000147897852
0.0001490172435
0.0001485400717
0.0001509735594
0.0001515352051
0.0001527146669
0.0001521439699
0.0001512679446
0.0001508197602
0.0001496608602
0.000150143489
0.0001550277666
0.0001550685411
0.0001563518017
0.0001562023826
0.0001562534308
0.0001566114079
0.0001570178865
0.000156551745
0.0001557234646
0.0001567213912
0.0001550542947
0.0001544963743
0.0001534363691
0.0001539405785
0.000143742378
0.0001442511275
0.0001452869328
0.0001447611721
0.0001473916636
0.0001468648843
0.000145809332
0.0001463438675
0.0001400958281
0.0001405778166
0.0001415454753
0.0001410599943
0.0001435316954
0.0001430296397
0.0001420389308
0.0001425344963
0.0001583780104
0.0001586184808
0.0001589832391
0.0001585648715
0.0001576057548
0.0001564352715
0.0001579376112
0.0001596101356
0.0001503495878
0.0001542802784
0.0001560645615
0.0001595650101
0.0001599045936
0.0001580508106
0.000145195314
0.0001441786444
0.0001377868757
0.0001511847222
0.0001479539787
0.0001485137182
0.0001496271871
0.0001490663126
0.000151907836
0.0001523942046
0.0001535841875
0.0001530887239
0.0001518452918
0.0001512531453
0.0001501693041
0.0001507267007
0.0001558410877
0.0001563350961
0.0001577859512
0.0001575817587
0.0001575342321
0.0001576834184
0.0001579131349
0.000157605813
0.0001570711611
0.0001588343002
0.0001568215375
0.000155849295
0.0001542873215
0.000154844689
0.0001440345659
0.0001445459638
0.0001455780875
0.0001450552081
0.0001477074256
0.0001471661526
0.0001461038046
0.0001466341637
0.0001410302357
0.0001415059232
0.0001424703514
0.0001419864711
0.0001444429508
0.0001439443295
0.0001429571421
0.0001434496371
0.0001600492687
0.0001608644961
0.000161063479
0.0001611589105
0.0001611091866
0.0001596529328
0.0001604484714
0.0001612670749
0.0001622852142
0.0001509188151
0.0001570123277
0.0001574584021
0.0001561523386
0.0001592212648
0.0001616463269
0.0001634225482
0.0001625111618
0.0001520609658
0.0001459114719
0.000146564591
0.0001450905547
0.0001502206287
0.0001447057293
0.0001523017127
0.0001564730919
0.0001559013617
0.0001487240079
0.0001492778538
0.0001504027896
0.0001498372876
0.0001522238599
0.0001527693821
0.0001539515506
0.0001533546019
0.0001528175781
0.0001521255617
0.0001509720169
0.0001515477779
0.0001567170402
0.0001572920592
0.000158765848
0.0001588100131
0.000159064919
0.0001584545971
0.0001588281011
0.0001585682185
0.0001585844875
0.0001579103555
0.0001602755656
0.0001602247503
0.0001575737551
0.0001558565418
0.0001545341802
0.0001551668538
0.0001449445845
0.0001454539015
0.0001464885718
0.000145969796
0.0001486245746
0.0001480832289
0.000147014187
0.0001475450117
0.0001413450955
0.0001418189058
0.0001427817188
0.0001423004142
0.0001447533286
0.0001442562498
0.0001432699501
0.0001437609608
0.0001625281002
0.0001625798031
0.0001630651823
0.0001631172636
0.0001640511764
0.0001643447322
0.0001639841794
0.0001629710896
0.0001622440759
0.0001616190129
0.0001616842201
0.0001629682374
0.0001645138836
0.000162963348
0.0001643541618
0.0001642986026
0.0001611972984
0.0001559395751
0.0001653974905
0.0001599357347
0.0001632074564
0.0001634474174
0.0001652985666
0.0001669636986
0.0001670474594
0.0001668986079
0.0001656482782
0.0001656969835
0.0001482939697
0.0001505499386
0.0001537629869
0.000157020695
0.0001618012466
0.0001599220268
0.0001491745643
0.0001497295889
0.0001508565329
0.0001502890227
0.0001533057221
0.0001538989745
0.0001550237648
0.0001544690458
0.0001531768648
0.0001525880361
0.0001514301402
0.0001520062797
0.0001580290555
0.0001586191502
0.0001596514048
0.000160257463
0.0001603815035
0.0001599304087
0.0001600068645
0.0001592307817
0.0001598560775
0.0001592606131
0.000161643402
0.0001610953186
0.0001570028544
0.0001580133394
0.0001565692801
0.0001555519266
0.0001560622622
0.0001452546858
0.0001457628096
0.0001467968395
0.0001462784421
0.0001489359274
0.000148393563
0.0001473231387
0.0001478555496
0.0001415433944
0.0001420180488
0.0001429816184
0.0001424982038
0.0001449494448
0.0001444517693
0.0001434664009
0.0001439587795
0.0001638068934
0.0001643466821
0.0001649836777
0.0001655683154
0.0001653966319
0.0001648237812
0.0001642126736
0.0001632075728
0.0001622760465
0.0001628258033
0.000165641788
0.0001657124812
0.0001660609123
0.0001667199103
0.0001661828574
0.0001657581452
0.0001639362163
0.0001615016081
0.0001631088962
0.0001655852393
0.0001670614147
0.000164618119
0.0001632167405
0.0001645778102
0.0001666408498
0.0001653501386
0.0001665838354
0.0001674213563
0.0001683034934
0.0001686044998
0.0001681538706
0.0001674199593
0.0001677097316
0.0001485056855
0.000152452325
0.0001562339894
0.0001594566129
0.0001618117676
0.0001613512286
0.0001637446694
0.0001620081021
0.0001635801018
0.0001601593831
0.0001612522465
0.0001494878961
0.0001500425569
0.000151171902
0.0001506039698
0.0001537722565
0.0001543708786
0.0001554910559
0.0001549413573
0.0001535033371
0.0001529124129
0.0001517482888
0.0001523277315
0.0001585302525
0.0001591657929
0.0001610539039
0.0001615773508
0.00016130929
0.0001611183543
0.0001600185351
0.000160397627
0.000160374344
0.0001598003291
0.0001635673252
0.0001623597345
0.0001575407077
0.0001583621197
0.0001570021559
0.0001560188539
0.0001565166604
0.0001454503945
0.0001459578052
0.0001469924173
0.0001464720845
0.0001491338771
0.0001485902467
0.0001475180616
0.0001480529172
0.0001416591549
0.0001421325724
0.0001430943375
0.0001426132949
0.0001450618147
0.0001445640082
0.0001435805316
0.0001440698543
0.0001651256025
0.0001656746026
0.0001665482268
0.0001664718729
0.000167843551
0.0001668831392
0.0001655038795
0.0001639520633
0.000164275305
0.0001648689067
0.0001665864256
0.0001672855433
0.0001671536302
0.0001683336159
0.0001677352848
0.0001673190854
0.000164132769
0.0001656818931
0.0001653566578
0.0001669137564
0.0001684094314
0.0001694126986
0.0001688374468
0.0001666548487
0.0001701012952
0.00016934624
0.0001678788394
0.0001690831268
0.000170649655
0.0001712030353
0.0001707537012
0.0001690108038
0.0001701813308
0.0001494674943
0.0001530655718
0.0001555172785
0.000156237249
0.0001595019712
0.0001564477861
0.00015900789
0.0001614595822
0.000161215954
0.000159684394
0.0001632608037
0.0001649323676
0.0001662388095
0.000165793972
0.0001654260413
0.0001496869227
0.0001502432569
0.0001513738825
0.0001508036221
0.0001541030069
0.0001547110878
0.0001558331132
0.0001552824979
0.0001537184726
0.0001531240705
0.000151950997
0.0001525354601
0.000158924202
0.000159570598
0.0001617712696
0.0001626840094
0.0001622052077
0.0001618132083
0.0001613339555
0.0001609159081
0.0001608944294
0.0001607648592
0.0001601968252
0.0001635719382
0.0001632779313
0.0001578706142
0.0001586167637
0.000157342758
0.0001563640253
0.0001568630105
0.0001455629827
0.0001460721105
0.0001471041469
0.0001465851819
0.0001492478914
0.0001487036789
0.0001476319449
0.0001481632644
0.0001417168824
0.0001421918569
0.0001431520068
0.0001426699164
0.0001451184071
0.0001446212409
0.0001436364109
0.0001441274508
0.0001663974108
0.0001670017082
0.0001681057038
0.0001684300369
0.0001688843331
0.0001668960904
0.0001655159431
0.0001654489897
0.0001651922939
0.0001655914384
0.0001689966739
0.000168278435
0.0001698761334
0.0001699565037
0.0001693664963
0.0001688650955
0.0001670190686
0.0001681243448
0.0001674514351
0.0001687860931
0.0001698214037
0.000170819374
0.0001702617592
0.0001698569686
0.0001713831152
0.0001706468029
0.0001706620824
0.0001713138627
0.0001706738403
0.0001720946457
0.0001719982101
0.0001706815383
0.0001701975561
0.0001524718973
0.0001530767477
0.0001552419853
0.0001555336348
0.0001543535764
0.0001576978248
0.0001591931796
0.0001613775676
0.0001639168477
0.0001626339508
0.0001636236411
0.000165139325
0.0001664935407
0.0001678401895
0.0001674826635
0.0001672282815
0.0001498039492
0.000150360589
0.0001514918986
0.0001509220601
0.00015432277
0.0001549382578
0.0001560614473
0.0001555101917
0.000153849076
0.0001532490569
0.00015207057
0.0001526562555
0.0001592020271
0.000159848918
0.0001627215825
0.000163301971
0.000162830358
0.0001623703429
0.0001619215182
0.0001613881032
0.0001612864289
0.0001610354375
0.000160468946
0.0001647790777
0.0001643817523
0.0001638478716
0.0001580961398
0.0001587873849
0.0001575789065
0.0001565961284
0.0001571004541
0.0001456215396
0.0001461284119
0.0001471612486
0.0001466420217
0.0001493065647
0.0001487594564
0.0001476880861
0.0001482198277
0.0001417419116
0.0001422163332
0.0001431764395
0.0001426948002
0.0001451426215
0.0001446440147
0.0001436609746
0.000144150792
0.000167383987
0.0001677013352
0.0001681233698
0.0001691660436
0.0001685101015
0.0001695569081
0.0001681327703
0.0001666274038
0.0001670096681
0.0001660912094
0.000165835474
0.0001662273135
0.0001690130302
0.0001704031602
0.0001710153447
0.0001699757122
0.0001701934816
0.000170005078
0.0001684856834
0.0001696343825
0.0001691252837
0.0001702342561
0.0001711660152
0.000172083237
0.0001715463877
0.0001711935038
0.0001718657732
0.0001725634356
0.000171778549
0.0001724695321
0.0001724708127
0.0001723166351
0.0001728757925
0.0001728369534
0.0001720262808
0.0001718422136
0.0001719254942
0.0001546677231
0.0001576114882
0.0001579625532
0.0001563299447
0.0001594114874
0.0001612648048
0.0001627411402
0.0001655528031
0.0001641104609
0.00016532882
0.0001668582991
0.0001680196438
0.000169242121
0.0001690164499
0.0001688340562
0.0001498640922
0.0001504206739
0.0001515529584
0.0001509832364
0.0001544599072
0.0001550799061
0.0001562020771
0.0001556487405
0.0001539205114
0.0001533153118
0.0001521309896
0.0001527191052
0.0001593846246
0.0001600302639
0.0001633904321
0.0001639587863
0.0001633092616
0.0001627933671
0.0001623111457
0.0001617759408
0.0001615614747
0.0001612084307
0.0001606448059
0.0001654806983
0.0001649881451
0.0001644910953
0.0001582460391
0.0001588891173
0.0001577315998
0.0001567376312
0.0001572484907
0.0001456450264
0.0001461539796
0.0001471858268
0.0001466661924
0.0001493311574
0.0001487830741
0.0001477118494
0.00014824346
0.0001417468156
0.0001422227069
0.0001431821584
0.0001427006064
0.0001451476564
0.0001446498791
0.0001436682505
0.0001441565691
0.0001680050045
0.0001683391747
0.0001698039996
0.0001695241954
0.0001698355481
0.0001692491496
0.0001700696303
0.0001687699551
0.0001672122307
0.000167682243
0.0001667219767
0.0001663080766
0.0001667324395
0.0001707856427
0.000170509491
0.0001712157245
0.0001717371633
0.000171749838
0.0001715164399
0.0001709126664
0.0001707234624
0.0001699478744
0.0001709740609
0.0001705057948
0.0001715458493
0.0001718608255
0.0001719510328
0.000172902015
0.000172306929
0.0001723567402
0.000172459142
0.0001725977927
0.0001726286573
0.0001733430545
0.0001725790207
0.0001724987524
0.0001732175879
0.0001732385135
0.0001730522781
0.0001734878751
0.0001734462276
0.000172830798
0.0001726171176
0.0001726746559
0.0001563383994
0.0001596173097
0.0001597853843
0.0001580569951
0.0001613547356
0.0001628395112
0.0001642023999
0.0001662763243
0.0001665414457
0.0001656788809
0.0001669176272
0.0001676687825
0.0001680966525
0.0001686394971
0.0001688949269
0.0001697321131
0.0001701380388
0.0001699524291
0.0001702566224
0.0001498884667
0.0001504449756
0.0001515770418
0.0001510075963
0.0001545389532
0.0001551597961
0.0001562794059
0.0001557266951
0.000153955727
0.0001533442992
0.0001521571976
0.0001527464337
0.0001594959904
0.0001601391996
0.0001638823014
0.0001644430449
0.0001636365778
0.0001630893676
0.0001625745499
0.0001620491093
0.0001617375383
0.0001613072091
0.0001607478043
0.0001659293484
0.0001654557127
0.0001649731421
0.0001583347912
0.0001589415187
0.0001578216325
0.0001568166044
0.0001573311747
0.0001456515165
0.0001461596985
0.0001471908035
0.0001466731628
0.0001493379241
0.0001487906266
0.0001477181358
0.0001482489752
0.000141747063
0.0001422210044
0.0001431815617
0.0001426997478
0.0001451473072
0.0001446487295
0.000143666708
0.0001441558416
0.0001684731396
0.0001688484044
0.0001705387258
0.0001701817091
0.0001703751041
0.00016974553
0.0001704354072
0.0001692787191
0.0001676724642
0.0001681254362
0.0001672148937
0.0001666445896
0.0001670889469
0.0001715574181
0.0001712140511
0.0001719320426
0.0001722699089
0.0001725401817
0.000172226195
0.0001714710525
0.0001712526719
0.0001706650364
0.0001707946649
0.0001718314015
0.0001712601224
0.0001713559177
0.0001723859168
0.0001726430055
0.0001727259514
0.0001735152764
0.0001731154771
0.0001731612429
0.0001732986566
0.0001733608078
0.0001734390098
0.0001739312283
0.0001733550889
0.0001732256351
0.0001737651473
0.0001737750863
0.0001736270933
0.0001739139843
0.0001738653955
0.0001734252
0.0001732006203
0.0001732746314
0.0001582687546
0.0001614460198
0.0001597991504
0.0001613606728
0.0001630200131
0.0001637555979
0.0001642587449
0.0001652339415
0.0001649269543
0.0001671878854
0.0001674837113
0.0001666830649
0.0001679236302
0.0001685069583
0.0001689769997
0.0001694407692
0.0001697323023
0.0001705870091
0.0001708090131
0.0001708430937
0.0001711823425
0.0001498954225
0.000150450127
0.0001515833428
0.0001510124712
0.0001545783016
0.0001552017929
0.0001563178375
0.0001557648357
0.0001539662771
0.0001533527102
0.0001521632366
0.000152753506
0.0001595545618
0.0001601985277
0.0001642127318
0.0001647700556
0.0001638418908
0.0001632797939
0.0001627455349
0.0001622272102
0.0001618384413
0.0001613565109
0.000160800817
0.000166235186
0.0001657781395
0.0001653053623
0.0001583801495
0.0001589693857
0.0001578659285
0.0001568537846
0.0001573719492
0.0001456500904
0.0001461584325
0.0001471907599
0.0001466723479
0.0001493357995
0.0001487879636
0.0001477156766
0.0001482482767
0.0001417447347
0.0001422202622
0.0001431797282
0.0001426977251
0.0001451459684
0.0001446471724
0.0001436651946
0.0001441536297
0.0001688013581
0.0001692048099
0.0001710473152
0.0001707082702
0.0001707582996
0.0001700810099
0.0001706767798
0.000169625986
0.0001679854176
0.0001684199378
0.0001675546082
0.0001668664918
0.0001673186052
0.0001720772125
0.0001717603154
0.0001724976755
0.0001726388
0.0001731032971
0.000172789325
0.0001718589047
0.0001716178667
0.0001715103572
0.0001716227271
0.0001724653994
0.0001720811706
0.0001721727313
0.0001730017684
0.0001732402307
0.0001733364188
0.0001739417785
0.0001737281273
0.0001737965649
0.0001739349827
0.0001739788568
0.0001740630396
0.0001743410248
0.0001739229774
0.0001737946295
0.000174139248
0.000174128174
0.00017401675
0.0001741865126
0.000174132525
0.0001738276624
0.0001736119011
0.0001736948616
0.0001596054353
0.0001589972817
0.0001621281117
0.0001625060831
0.0001607917075
0.0001603792625
0.0001623287681
0.0001640459086
0.0001647419122
0.0001653369691
0.0001662099239
0.0001658733818
0.0001678953995
0.0001682110596
0.000167415812
0.0001686495671
0.0001691786456
0.0001696253748
0.0001700830762
0.0001703909365
0.0001712587837
0.000171279331
0.0001715432445
0.0001718821004
0.0001498935744
0.0001504483225
0.0001515803742
0.0001510114234
0.0001545956184
0.0001552185422
0.0001563312399
0.0001557806681
0.0001539690129
0.0001533526665
0.0001521618251
0.000152751265
0.0001595853391
0.0001602270058
0.0001644176809
0.0001649751794
0.000163958146
0.0001633906795
0.0001628467726
0.0001623312128
0.0001618884271
0.0001613781787
0.0001608255843
0.0001664373267
0.0001659896952
0.0001655188244
0.0001584050915
0.0001589860185
0.0001578887604
0.0001568683656
0.000157388451
0.0001456475147
0.0001461555075
0.0001471883297
0.0001466702233
0.0001493351592
0.0001487858099
0.0001477146579
0.0001482466905
0.0001690120553
0.0001694329694
0.0001713859383
0.0001710714278
0.0001710092183
0.0001702996669
0.0001708252239
0.0001698494016
0.0001681848225
0.0001686085016
0.0001677707041
0.0001670002239
0.0001674532832
0.0001724196045
0.0001721285225
0.0001728927164
0.0001728714415
0.0001734867401
0.0001731748489
0.0001721064327
0.0001718511776
0.000172174332
0.0001722760207
0.0001729020732
0.0001726970513
0.000172797867
0.0001734196994
0.000173641718
0.0001737594721
0.0001742153836
0.0001741472661
0.0001742409077
0.0001743827888
0.0001744161855
0.0001744969341
0.0001746037742
0.000174304223
0.0001741838059
0.0001743731555
0.0001743439207
0.0001742605236
0.000174346409
0.000174288085
0.0001740826701
0.0001738817809
0.0001739686268
0.0001605089928
0.0001598124509
0.0001630313782
0.0001634856162
0.000161680684
0.0001611852786
0.0001630246988
0.0001648257748
0.0001655087544
0.0001661011775
0.0001669583289
0.0001666256576
0.0001683714509
0.0001687069016
0.0001679138513
0.0001691412035
0.0001696338295
0.0001700604334
0.0001705161994
0.0001708533964
0.0001717268024
0.0001715870167
0.0001720414002
0.0001723806927
0.0001498926867
0.000150449574
0.0001515790937
0.00015100991
0.0001545991254
0.0001552245958
0.0001563353144
0.0001557841897
0.0001539674558
0.0001533506875
0.0001521576924
0.0001527491986
0.0001595994836
0.0001602388074
0.0001645320008
0.0001650916529
0.0001640168048
0.0001634467626
0.00016290044
0.000162385375
0.0001619103714
0.0001613846398
0.0001608340099
0.0001665603195
0.0001661173301
0.0001656445675
0.0001584215206
0.0001589960448
0.0001579000091
0.0001568720763
0.0001573951158
0.0001691355865
0.0001695669489
0.0001716005791
0.0001713052625
0.0001711605146
0.000170433239
0.0001709106873
0.0001699826244
0.0001683018636
0.0001687190088
0.0001678958652
0.0001670747006
0.0001675253734
0.0001726313931
0.0001723604073
0.0001731440279
0.0001730038493
0.0001737359999
0.0001734213292
0.0001722492161
0.0001719871216
0.000172636268
0.0001727313502
0.000173177541
0.0001731096272
0.0001732231467
0.000173681241
0.0001738893043
0.0001740295411
0.0001743762405
0.0001744129841
0.0001745316986
0.0001746769703
0.0001747051574
0.0001747810747
0.0001747580827
0.0001745397894
0.0001744283945
0.0001745068148
0.0001744623005
0.0001743991161
0.0001744331821
0.0001743721368
0.0001742300665
0.0001740460575
0.0001741330925
0.0001611486368
0.0001604687859
0.0001637377718
0.0001642423013
0.0001623542194
0.0001618284296
0.0001634982036
0.0001653769432
0.000166049329
0.0001666309545
0.0001674752566
0.0001671440405
0.0001686622418
0.0001690184145
0.0001682267466
0.0001694497041
0.0001699132554
0.0001703294984
0.0001707853517
0.0001711524819
0.0001720275322
0.0001717712876
0.000172373926
0.0001727148192
0.0001545990672
0.0001552175527
0.0001563322585
0.0001557845681
0.000159607298
0.0001602393895
0.0001645877637
0.0001651510393
0.0001640405098
0.0001634726068
0.0001629243779
0.0001624101278
0.0001619179093
0.0001613852801
0.0001608323655
0.0001666301105
0.0001661881397
0.0001657119137
0.0001584314887
0.0001579062955
0.00015687212
0.0001573952613
0.000169202307
0.0001696386171
0.0001717251143
0.000171444728
0.0001712449739
0.0001705103932
0.0001709585777
0.0001700567955
0.0001683646842
0.0001687785843
0.0001679615962
0.000167114893
0.000167561695
0.0001727491908
0.0001724921167
0.0001732893725
0.000173072709
0.0001738874998
0.0001735665137
0.0001723241585
0.0001720585569
0.0001729349751
0.0001730241347
0.00017333508
0.0001733628014
0.0001734908146
0.0001738307474
0.000174026849
0.0001741872402
0.0001744644978
0.0001745662739
0.0001747074566
0.0001748569048
0.0001748830837
0.0001749532239
0.0001748418726
0.0001746702619
0.0001745680202
0.0001745771442
0.0001745218178
0.0001744719048
0.0001744788024
0.0001744174806
0.0001743082539
0.0001741403394
0.0001742251334
0.0001615731453
0.0001609113824
0.0001642177231
0.0001647681493
0.0001628168829
0.0001622575219
0.0001637972891
0.0001657356916
0.0001663990115
0.0001669766352
0.0001678089757
0.0001674792729
0.0001688197226
0.0001691971411
0.0001684053423
0.0001696273685
0.0001700685389
0.0001704808819
0.000170935964
0.0001713327511
0.000172204469
0.0001718755811
0.0001725793845
0.0001729252108
0.0001646119927
0.0001651781786
0.0001640518603
0.0001634863002
0.0001629383769
0.0001624211436
0.0001619170071
0.0001666701573
0.0001662252762
0.0001657453104
0.0001692372316
0.0001696740219
0.0001717928535
0.0001715205144
0.0001712903468
0.000170555184
0.000170990068
0.0001700946596
0.0001683967712
0.0001688106568
0.0001679939887
0.0001671392529
0.0001675806125
0.0001728088246
0.0001725596085
0.0001733654062
0.0001731072844
0.0001739750442
0.0001736455015
0.0001723607566
0.000172097818
0.0001731122175
0.0001731967204
0.0001734175894
0.0001735008263
0.0001736440172
0.000173910681
0.0001740956068
0.0001742730965
0.0001745131594
0.0001746472262
0.0001748064242
0.0001749604271
0.0001749860821
0.000175051915
0.0001748838113
0.0001747349015
0.0001746411435
0.0001746128546
0.0001745512127
0.0001745087066
0.0001745031477
0.0001744423062
0.0001743510511
0.0001741943124
0.0001742762252
0.0001618281967
0.0001611783518
0.0001645133307
0.0001651060011
0.0001631104533
0.0001625174627
0.0001639696275
0.0001659497793
0.0001666035532
0.0001671840728
0.0001680069836
0.0001676789107
0.0001688945922
0.0001692916267
0.0001684981835
0.000169721694
0.0001701458532
0.0001705588365
0.0001710131037
0.0001714327082
0.0001723007008
0.0001719347056
0.0001726998162
0.0001730517688
0.0001646209712
0.0001651891071
0.0001640574919
0.0001634944783
0.0001629480685
0.000162427139
0.0001666929602
0.0001662465947
0.0001657614775
0.0001692600345
0.0001696926483
0.0001718282147
0.0001715615508
0.0001713171077
0.0001705839095
0.0001710032811
0.0001701170986
0.000168413957
0.0001688315824
0.0001680100395
0.0001671476202
0.0001675888489
0.000172838656
0.0001725932379
0.0001734019024
0.00017312399
0.0001740267471
0.0001736857521
0.0001723833848
0.0001721203153
0.0001732115925
0.0001732898527
0.0001734594553
0.0001735674741
0.0001737244602
0.0001739519648
0.0001741296292
0.0001743175089
0.0001745415648
0.0001746898779
0.0001748615468
0.000175021094
0.0001750444353
0.000175109788
0.0001749027724
0.000174764602
0.000174676883
0.0001746322669
0.0001745678746
0.0001745274785
0.0001745086338
0.0001744543843
0.0001743775356
0.0001742289314
0.0001743075554
0.0001619649556
0.0001613203058
0.0001646750316
0.0001653030049
0.0001632819185
0.0001626564917
0.000164063691
0.0001660690177
0.0001667133183
0.0001673012594
0.0001681154681
0.0001677896216
0.0001689275523
0.0001693387603
0.0001685442112
0.0001697704138
0.0001701834408
0.0001705996692
0.0001710533397
0.0001714874379
0.0001723526511
0.0001719707216
0.00017276984
0.0001731286902
0.000164622048
0.000165195248
0.0001667037723
0.0001662533905
0.0001657609246
0.000169273786
0.0001697011612
0.0001718528365
0.0001715849648
0.0001713271777
0.0001705948671
0.000170133193
0.0001684248564
0.0001688441553
0.0001680147252
0.0001728569623
0.0001726113551
0.0001734179968
0.0001731356169
0.0001740625303
0.000173705077
0.0001723901223
0.0001721341832
0.0001732658711
0.0001733368408
0.0001734795806
0.0001735993719
0.0001737652638
0.0001739738364
0.0001741498709
0.0001743435714
0.0001745533664
0.0001747160568
0.000174896355
0.0001750594529
0.0001750783704
0.0001751518867
0.0001749176299
0.0001747794013
0.0001746936905
0.0001746398193
0.0001745783375
0.0001745386253
0.0001743889588
0.0001742495224
0.0001743236498
0.000162031909
0.0001613867498
0.0001647541649
0.0001654100633
0.000163374978
0.0001627228921
0.0001641166164
0.0001661344286
0.0001667725883
0.0001673683873
0.000168171362
0.00016785138
0.0001689451165
0.0001693636295
0.0001685681636
0.0001697960979
0.0001702039008
0.0001706245239
0.0001710771758
0.0001715204126
0.0001723878377
0.0001719886204
0.0001728151692
0.0001731813973
0.0001718630083
0.0001715986873
0.0001728655916
0.0001726249902
0.0001734171383
0.0001740644657
0.000173728331
0.0001732992532
0.0001733595273
0.0001734828111
0.000173615641
0.0001737886778
0.0001739832805
0.0001741604356
0.0001743570319
0.0001747320057
0.0001749123039
0.0001750820375
0.0001750906376
0.0001751651434
0.0001747843344
0.0001747043862
0.0001620642433
0.0001614167268
0.0001647933823
0.0001654674415
0.0001634247747
0.0001627541496
0.0001641471608
0.0001661738934
0.000166809783
0.0001674149535
0.0001681993599
0.0001678880362
0.0001689587662
0.0001693753729
0.0001685752504
0.000169805513
0.0001702159934
0.0001706405019
0.0001710905199
0.000171540436
0.0001724113245
0.0001728450588
0.0001731938974
0.0001733190147
0.0001733720565
0.0001736232371
0.0001737948041
0.0001620827243
0.0001614312787
0.0001648185134
0.0001655012311
0.0001634543733
0.0001627715246
0.0001641588315
0.0001661929709
0.0001668352634
0.0001674347586
0.0001682205184
0.0001678965782
0.0001620942785
0.0001614431385
0.0001648325706
0.0001655185624
0.0001634672662
0.0001627792517
0.0001129464217
0.0001089832222
0.0001154087513
0.0001110452577
0.0001051792933
0.0001178034654
0.0001129654993
0.0001068140555
0.0001015516027
0.0001177221275
0.000108264685
0.0001146797804
0.0001027648832
9.80503828e-05
0.0001194994984
0.0001037560651
0.0001094785403
0.0001160941174
9.887601482e-05
9.609349945e-05
0.0001209049442
0.0001044713426
9.943266923e-05
0.0001103457689
0.000117094969
9.668778512e-05
9.275442426e-05
0.0001217601966
0.000104814193
9.966730431e-05
9.698860231e-05
0.000110717694
0.0001175251236
9.293675976e-05
9.039780707e-05
0.000125488863
9.95000446e-05
0.0001046456309
9.693824541e-05
9.280586528e-05
0.0001104362382
0.0001171989643
9.016793774e-05
8.924035501e-05
0.0001254664094
9.647269326e-05
9.881647566e-05
0.0001037574038
9.230052092e-05
8.950207848e-05
0.0001093375467
0.0001166862639
8.890913887e-05
8.581407019e-05
0.0001245111926
9.135882283e-05
9.548878734e-05
9.742280236e-05
0.0001019714255
8.855516353e-05
8.818139031e-05
0.00010835594
0.0001149641103
8.505217556e-05
8.365874965e-05
0.0001246653555
8.707476081e-05
8.989304479e-05
9.381353448e-05
9.510700329e-05
0.0001005361628
8.711693226e-05
8.392746531e-05
0.0001059100614
0.0001147318835
8.270905528e-05
8.143293962e-05
0.0001238805853
0.0001223569125
0.0001353278931
0.000131926965
8.556689136e-05
8.497669478e-05
8.779038035e-05
9.109712119e-05
9.328257875e-05
9.739203233e-05
8.2388593e-05
8.138934209e-05
0.0001053994565
0.0001097554341
8.031687321e-05
7.925846876e-05
0.0001316076377
0.0001240219281
0.0001176291335
8.345677634e-05
8.037152293e-05
8.214062109e-05
8.478678501e-05
8.670084935e-05
8.954280202e-05
9.658710769e-05
7.965430268e-05
7.883107173e-05
9.83994978e-05
0.0001044667879
7.798663137e-05
7.72455096e-05
0.0001392163249
0.0001315341215
0.0001222758146
0.0001161183172
8.067266754e-05
7.779287989e-05
7.745387848e-05
7.879173063e-05
7.997710782e-05
8.427976718e-05
8.841409726e-05
8.860558592e-05
7.693630323e-05
7.635282236e-05
9.263061656e-05
0.0001029871783
0.0001128821968
9.659765055e-05
7.582682156e-05