/*--------------------------------*- C++ -*----------------------------------*\
  =========                 |
  \\      /  F ield         | OpenFOAM: The Open Source CFD Toolbox
   \\    /   O peration     | Website:  https://openfoam.org
    \\  /    A nd           | Version:  8
     \\/     M anipulation  |
\*---------------------------------------------------------------------------*/






FoamFile
{
    version     2.0;
    format      ascii;
    class       volSymmTensorField;
    location    "0";
    object      TauDDES;
}
// * * * * * * * * * * * * * * * * * * * * * * * * * * * * * * * * * * * * * //

dimensions      [0 2 -2 0 0 0 0];


internalField   nonuniform List<symmTensor>
20961
(
( 2.793457861e-05 -8.487788364e-06 4.411804184e-07 1.784031338e-05 -2.631869052e-07 2.312034849e-05 )
( 2.642577419e-05 -7.0767137e-06 4.685088015e-07 1.600059477e-05 -2.279336968e-07 2.364609099e-05 )
( 2.742928154e-05 -8.304907169e-06 4.584124156e-07 1.744469409e-05 -1.755676635e-07 2.329169001e-05 )
( 2.522736759e-05 -5.616263024e-06 4.415355193e-07 1.346040244e-05 -2.111519422e-07 2.414174742e-05 )
( 2.599216168e-05 -6.878254226e-06 4.445809338e-07 1.55572161e-05 -1.927048885e-07 2.378094359e-05 )
( 2.689866596e-05 -8.102007087e-06 4.621856533e-07 1.701582369e-05 -1.053182643e-07 2.355010474e-05 )
( 2.486794438e-05 -5.394465916e-06 4.495774704e-07 1.298115603e-05 -2.035789919e-07 2.420217788e-05 )
( 2.489653889e-05 -4.83169606e-06 4.387259764e-07 1.182760388e-05 -2.0561572e-07 2.433322516e-05 )
( 2.472743836e-05 -4.722686754e-06 4.55330337e-07 1.160036209e-05 -2.072743683e-07 2.433777627e-05 )
( 2.55614832e-05 -6.648016097e-06 4.311482087e-07 1.505017826e-05 -1.688134006e-07 2.396310629e-05 )
( 2.639379454e-05 -7.872598871e-06 4.362743482e-07 1.653876279e-05 -5.163077077e-08 2.385737025e-05 )
( 2.45252304e-05 -5.139139375e-06 4.728283898e-07 1.243549468e-05 -1.785999189e-07 2.430645509e-05 )
( 2.457445953e-05 -4.607079973e-06 4.679295103e-07 1.135503953e-05 -1.995742167e-07 2.435835268e-05 )
( 2.441006473e-05 -4.477976745e-06 4.820570894e-07 1.109402183e-05 -1.923821884e-07 2.439929631e-05 )
( 2.507452336e-05 -3.539569661e-06 4.06477028e-07 8.677993719e-06 -1.641571998e-07 2.469718856e-05 )
( 2.492967906e-05 -3.435112603e-06 4.095433326e-07 8.48595937e-06 -1.742230182e-07 2.465300349e-05 )
( 2.514171319e-05 -6.403475709e-06 4.314125022e-07 1.448719013e-05 -1.286325357e-07 2.416393363e-05 )
( 2.589190444e-05 -7.621420991e-06 4.002154412e-07 1.601463373e-05 -4.2350079e-10 2.416585448e-05 )
( 2.424607374e-05 -4.333817287e-06 4.915995646e-07 1.082293875e-05 -1.792748208e-07 2.445715108e-05 )
( 2.40713598e-05 -4.185151283e-06 4.988777391e-07 1.054493441e-05 -1.61313551e-07 2.45478077e-05 )
( 2.416322604e-05 -4.855774023e-06 5.040510018e-07 1.185471865e-05 -1.395789155e-07 2.449353997e-05 )
( 2.47760654e-05 -3.326637852e-06 4.077592166e-07 8.273416825e-06 -1.755647645e-07 2.463255805e-05 )
( 2.45914398e-05 -3.201427489e-06 4.095576003e-07 8.047219126e-06 -1.752308236e-07 2.464904537e-05 )
( 2.555856008e-05 -2.851284762e-06 3.095031502e-07 6.769082574e-06 -1.27265551e-07 2.480053627e-05 )
( 2.555006358e-05 -2.845276185e-06 3.090797236e-07 6.756447874e-06 -1.28159769e-07 2.47957214e-05 )
( 2.541223148e-05 -2.753868785e-06 3.026119941e-07 6.599594144e-06 -1.399169491e-07 2.473243876e-05 )
( 2.542294169e-05 -2.761408496e-06 3.030979201e-07 6.613424375e-06 -1.390730517e-07 2.473629502e-05 )
( 2.466850492e-05 -6.130643669e-06 4.241903184e-07 1.390204125e-05 -7.812943181e-08 2.445464088e-05 )
( 2.531155042e-05 -7.343755897e-06 3.382622253e-07 1.547950342e-05 6.563892896e-08 2.456720358e-05 )
( 2.438548108e-05 -3.0491085e-06 4.111300598e-07 7.820036444e-06 -1.7270402e-07 2.471019798e-05 )
( 2.414080518e-05 -2.873083986e-06 4.040390138e-07 7.576357348e-06 -1.641305687e-07 2.483064236e-05 )
( 2.378765566e-05 -3.384183856e-06 4.526910402e-07 8.917623745e-06 -1.485609573e-07 2.485456571e-05 )
( 2.339353523e-05 -3.762685765e-06 4.623656196e-07 9.852192306e-06 -1.052891392e-07 2.513672189e-05 )
( 2.35187199e-05 -3.188778464e-06 4.327850149e-07 8.606451047e-06 -1.282951843e-07 2.509816841e-05 )
( 2.41297239e-05 -5.295355095e-06 4.693503968e-07 1.256931591e-05 -1.001972052e-07 2.465446414e-05 )
( 2.524896263e-05 -2.659022584e-06 3.026881643e-07 6.439257049e-06 -1.454060055e-07 2.470350228e-05 )
( 2.523560397e-05 -2.650761644e-06 3.027983837e-07 6.423754712e-06 -1.454676948e-07 2.470285835e-05 )
( 2.501841482e-05 -2.533014595e-06 3.178043926e-07 6.237189154e-06 -1.469910131e-07 2.472167216e-05 )
( 2.503465475e-05 -2.543368964e-06 3.168069895e-07 6.253620086e-06 -1.473160296e-07 2.471850894e-05 )
( 2.59598819e-05 -2.403622148e-06 2.417436633e-07 5.538741334e-06 -1.024944467e-07 2.479096111e-05 )
( 2.589405085e-05 -2.378867521e-06 2.325350579e-07 5.49270726e-06 -1.031425256e-07 2.476000918e-05 )
( 2.573521124e-05 -2.293443686e-06 2.220384374e-07 5.360571322e-06 -1.106628673e-07 2.469529136e-05 )
( 2.580761429e-05 -2.32542402e-06 2.24942255e-07 5.409554433e-06 -1.086276313e-07 2.471658263e-05 )
( 2.385283733e-05 -5.117712135e-06 4.394646567e-07 1.225494816e-05 -6.912159733e-08 2.49311197e-05 )
( 2.409079389e-05 -5.803658496e-06 3.417590904e-07 1.330723626e-05 -1.178521991e-08 2.499204311e-05 )
( 2.46061154e-05 -7.031974746e-06 2.018744425e-07 1.496457662e-05 1.486076826e-07 2.518555084e-05 )
( 2.476677764e-05 -2.395922365e-06 3.352182034e-07 6.063679393e-06 -1.465422059e-07 2.478584247e-05 )
( 2.474710163e-05 -2.382989123e-06 3.366041312e-07 6.045516329e-06 -1.466132744e-07 2.479327668e-05 )
( 2.385198604e-05 -2.680405487e-06 3.973787557e-07 7.305797226e-06 -1.47169871e-07 2.502672578e-05 )
( 2.441450852e-05 -2.20382185e-06 3.538952456e-07 5.830643659e-06 -1.422142901e-07 2.492977546e-05 )
( 2.44381954e-05 -2.219406269e-06 3.528608374e-07 5.852567483e-06 -1.428706611e-07 2.491736814e-05 )
( 2.320205022e-05 -2.963349971e-06 4.081599059e-07 8.282158888e-06 -1.04607544e-07 2.543326809e-05 )
( 2.307513023e-05 -3.533305062e-06 4.271588523e-07 9.509269148e-06 -7.233612109e-08 2.551958278e-05 )
( 2.351781586e-05 -2.463185865e-06 3.900794923e-07 7.01171939e-06 -1.237670944e-07 2.531048995e-05 )
( 2.562920054e-05 -2.237092531e-06 2.277528495e-07 5.267934284e-06 -1.165380112e-07 2.467726517e-05 )
( 2.553158811e-05 -2.201610869e-06 2.360808935e-07 5.216021236e-06 -1.194089378e-07 2.467539525e-05 )
( 2.525643868e-05 -2.086512723e-06 2.614081041e-07 5.062377568e-06 -1.199352369e-07 2.470955042e-05 )
( 2.538660192e-05 -2.133418775e-06 2.484827064e-07 5.117264664e-06 -1.200952084e-07 2.46874497e-05 )
( 2.601229426e-05 -1.888403062e-06 1.784444947e-07 4.124412044e-06 -6.871314895e-08 2.429878077e-05 )
( 2.600959488e-05 -1.887273697e-06 1.780624075e-07 4.122533937e-06 -6.863229629e-08 2.429725464e-05 )
( 2.591625889e-05 -1.85846352e-06 1.654919686e-07 4.064916084e-06 -6.713464273e-08 2.425694038e-05 )
( 2.591892553e-05 -1.859498411e-06 1.65792315e-07 4.066672773e-06 -6.711020717e-08 2.425839011e-05 )
( 2.570911602e-05 -1.789764838e-06 1.47376241e-07 3.966362783e-06 -6.869639435e-08 2.419793054e-05 )
( 2.571255936e-05 -1.790993906e-06 1.474913631e-07 3.968370947e-06 -6.86412136e-08 2.419878001e-05 )
( 2.581991794e-05 -1.823887374e-06 1.536429295e-07 4.027996511e-06 -6.767103855e-08 2.422089892e-05 )
( 2.581686567e-05 -1.822641366e-06 1.533023806e-07 4.02599062e-06 -6.766418892e-08 2.421967838e-05 )
( 2.354535536e-05 -4.918400009e-06 3.958006687e-07 1.193251865e-05 -3.194664799e-08 2.529412086e-05 )
( 2.276085797e-05 -3.921112238e-06 3.799744661e-07 1.037518723e-05 1.382811643e-08 2.609348121e-05 )
( 2.338923878e-05 -5.412359769e-06 2.23749538e-07 1.271050678e-05 7.349356679e-08 2.585460788e-05 )
( 2.371031769e-05 -6.707688044e-06 7.803070901e-08 1.452175275e-05 2.421591603e-07 2.608790237e-05 )
( 2.507561658e-05 -1.998433163e-06 2.833908468e-07 4.958934369e-06 -1.233265294e-07 2.475369001e-05 )
( 2.491242412e-05 -1.938580681e-06 3.001802611e-07 4.897856343e-06 -1.239067444e-07 2.479845716e-05 )
( 2.404805309e-05 -2.012237928e-06 3.727313924e-07 5.608376341e-06 -1.287421156e-07 2.513500294e-05 )
( 2.402031532e-05 -1.993640126e-06 3.744698347e-07 5.581498044e-06 -1.271669561e-07 2.515456981e-05 )
( 2.44867806e-05 -1.754871391e-06 3.297897138e-07 4.708975212e-06 -1.184555458e-07 2.496449997e-05 )
( 2.468149069e-05 -1.832279509e-06 3.144616869e-07 4.78070524e-06 -1.214855274e-07 2.488265454e-05 )
( 2.311957905e-05 -2.205729743e-06 3.866808811e-07 6.69243127e-06 -1.036500379e-07 2.568921263e-05 )
( 2.282364403e-05 -2.696973525e-06 3.883472459e-07 7.931025721e-06 -7.626902487e-08 2.58732598e-05 )
( 2.270741243e-05 -3.271124797e-06 3.971685771e-07 9.163298273e-06 -3.541729399e-08 2.599776417e-05 )
( 2.356665937e-05 -1.747215492e-06 4.007749226e-07 5.305954346e-06 -1.07221382e-07 2.549453711e-05 )
( 2.359880455e-05 -1.770579502e-06 3.988788535e-07 5.338147275e-06 -1.089626736e-07 2.546612996e-05 )
( 2.558930282e-05 -1.754193022e-06 1.475403053e-07 3.927718353e-06 -7.208508634e-08 2.418395889e-05 )
( 2.558525011e-05 -1.752869593e-06 1.477991276e-07 3.925475994e-06 -7.220160114e-08 2.418329677e-05 )
( 2.544197559e-05 -1.716700694e-06 1.577475075e-07 3.862066933e-06 -7.530564261e-08 2.418632175e-05 )
( 2.544684139e-05 -1.718153044e-06 1.573764763e-07 3.86442025e-06 -7.524536727e-08 2.418661097e-05 )
( 2.50820267e-05 -1.61170351e-06 1.845375834e-07 3.746709581e-06 -7.700688798e-08 2.423388833e-05 )
( 2.508821126e-05 -1.61384969e-06 1.841114283e-07 3.749518783e-06 -7.696078796e-08 2.423348997e-05 )
( 2.527464312e-05 -1.668768618e-06 1.694803018e-07 3.818521236e-06 -7.649779121e-08 2.420261444e-05 )
( 2.526903154e-05 -1.666938715e-06 1.697984544e-07 3.815878699e-06 -7.645092381e-08 2.420261262e-05 )
( 2.569977914e-05 -1.582899131e-06 1.519318573e-07 3.231786422e-06 -4.917395557e-08 2.366435183e-05 )
( 2.565871182e-05 -1.570598783e-06 1.427445682e-07 3.209309398e-06 -4.648175533e-08 2.364483589e-05 )
( 2.553400918e-05 -1.545834948e-06 1.260462312e-07 3.164090913e-06 -4.438543755e-08 2.359606697e-05 )
( 2.557839434e-05 -1.560598662e-06 1.343653651e-07 3.1873642e-06 -4.537211851e-08 2.361044972e-05 )
( 2.527027027e-05 -1.488777116e-06 1.00479653e-07 3.089140364e-06 -4.276456878e-08 2.354352e-05 )
( 2.532429062e-05 -1.50283347e-06 1.052548413e-07 3.112081004e-06 -4.235848294e-08 2.354695425e-05 )
( 2.545863026e-05 -1.526308324e-06 1.196596315e-07 3.154234264e-06 -4.441508139e-08 2.357148333e-05 )
( 2.540927744e-05 -1.512041308e-06 1.127698823e-07 3.131003268e-06 -4.330879122e-08 2.356124969e-05 )
( 2.228631638e-05 -2.981827492e-06 3.811793476e-07 8.828240425e-06 1.142901862e-08 2.656673314e-05 )
( 2.233511259e-05 -3.643707487e-06 3.697032582e-07 1.004777096e-05 5.508137235e-08 2.667160516e-05 )
( 2.185163612e-05 -3.338359193e-06 3.885564013e-07 9.739505913e-06 9.012310898e-08 2.734528789e-05 )
( 2.248486635e-05 -5.006894753e-06 1.903531768e-07 1.222645642e-05 1.599637898e-07 2.701899029e-05 )
( 2.323445187e-05 -6.557334473e-06 6.263954333e-08 1.429103759e-05 2.83875238e-07 2.660440805e-05 )
( 2.487227539e-05 -1.546246835e-06 2.001602581e-07 3.700011803e-06 -8.043069499e-08 2.427722757e-05 )
( 2.486522681e-05 -1.543680241e-06 2.008223845e-07 3.696830163e-06 -8.057514123e-08 2.42778151e-05 )
( 2.462648081e-05 -1.468793698e-06 2.2465467e-07 3.619102472e-06 -8.168041177e-08 2.434145972e-05 )
( 2.463475175e-05 -1.471511951e-06 2.242168762e-07 3.622483064e-06 -8.180089139e-08 2.434024282e-05 )
( 2.421369572e-05 -1.626835683e-06 3.521061274e-07 4.568733402e-06 -1.099267166e-07 2.51065685e-05 )
( 2.397990829e-05 -1.533734235e-06 3.722517192e-07 4.480177267e-06 -1.041190743e-07 2.524001684e-05 )
( 2.406532985e-05 -1.284506084e-06 2.570029096e-07 3.470555157e-06 -7.324383233e-08 2.455230788e-05 )
( 2.407487773e-05 -1.288107228e-06 2.564767385e-07 3.474723144e-06 -7.348275233e-08 2.454975584e-05 )
( 2.436785689e-05 -1.387360044e-06 2.370007337e-07 3.56431201e-06 -7.867946294e-08 2.442512414e-05 )
( 2.435891292e-05 -1.384104053e-06 2.373455885e-07 3.560521009e-06 -7.847027206e-08 2.442699588e-05 )
( 2.298524851e-05 -1.397105052e-06 4.324237182e-07 4.908129085e-06 -8.167211973e-08 2.601381675e-05 )
( 2.293933539e-05 -1.357670271e-06 4.35980013e-07 4.848857316e-06 -7.920279899e-08 2.606237103e-05 )
( 2.261361442e-05 -1.338573838e-06 4.283015187e-07 5.051485459e-06 -6.174735034e-08 2.63126567e-05 )
( 2.306941315e-05 -2.198227776e-06 3.857378488e-07 6.711200513e-06 -1.011337218e-07 2.573378333e-05 )
( 2.239449714e-05 -2.404830866e-06 3.729556965e-07 7.592564543e-06 -3.585279629e-08 2.642660183e-05 )
( 2.262096496e-05 -1.821695832e-06 3.897790464e-07 6.16929492e-06 -6.460570035e-08 2.623439832e-05 )
( 2.339673665e-05 -1.267701123e-06 4.175298614e-07 4.223925771e-06 -8.759634795e-08 2.565596878e-05 )
( 2.367261004e-05 -1.379539981e-06 3.97534734e-07 4.325831014e-06 -9.414132762e-08 2.546726864e-05 )
( 2.518115798e-05 -1.47075707e-06 1.00012258e-07 3.079741646e-06 -4.497422879e-08 2.353260425e-05 )
( 2.512261381e-05 -1.456878181e-06 9.961031822e-08 3.059198662e-06 -4.495701234e-08 2.353965465e-05 )
( 2.494060573e-05 -1.428223186e-06 1.067436557e-07 3.010007276e-06 -4.599495185e-08 2.354720164e-05 )
( 2.501656672e-05 -1.447863269e-06 1.039440249e-07 3.035864893e-06 -4.543916532e-08 2.353568743e-05 )
( 2.450963075e-05 -1.332960096e-06 1.260049345e-07 2.935796374e-06 -4.726961222e-08 2.363153544e-05 )
( 2.459926691e-05 -1.355925065e-06 1.212672913e-07 2.950622047e-06 -4.600440207e-08 2.358699749e-05 )
( 2.482067248e-05 -1.401935037e-06 1.126033169e-07 2.997890988e-06 -4.774529927e-08 2.355243487e-05 )
( 2.473353925e-05 -1.376361752e-06 1.168321333e-07 2.972312359e-06 -4.72899444e-08 2.357010635e-05 )
( 2.491437772e-05 -1.271069664e-06 1.290372751e-07 2.38281882e-06 -3.57199923e-08 2.27349301e-05 )
( 2.48479264e-05 -1.263298714e-06 1.197317374e-07 2.374714541e-06 -3.282544014e-08 2.27100827e-05 )
( 2.469766332e-05 -1.23788061e-06 9.972347215e-08 2.341160325e-06 -3.065896337e-08 2.265493094e-05 )
( 2.47629614e-05 -1.247091404e-06 1.079913545e-07 2.350430805e-06 -3.127922454e-08 2.267360651e-05 )
( 2.436690556e-05 -1.193197249e-06 6.707508504e-08 2.28826616e-06 -2.630369345e-08 2.260194015e-05 )
( 2.444399615e-05 -1.198611812e-06 7.332184282e-08 2.295643526e-06 -2.698373969e-08 2.260655856e-05 )
( 2.460717951e-05 -1.218767466e-06 9.051071714e-08 2.321737384e-06 -2.880705097e-08 2.262914859e-05 )
( 2.45337651e-05 -1.212487518e-06 8.269157803e-08 2.314743597e-06 -2.742058669e-08 2.261549889e-05 )
( 2.17912675e-05 -2.652630656e-06 3.955086072e-07 8.495165275e-06 5.130627301e-08 2.723389844e-05 )
( 2.187538121e-05 -2.072594953e-06 3.731215088e-07 7.260060102e-06 8.355826253e-09 2.708009742e-05 )
( 2.123655395e-05 -2.292234512e-06 4.368510531e-07 8.182775673e-06 8.407382524e-08 2.804321048e-05 )
( 2.177866918e-05 -3.298732054e-06 3.92797233e-07 9.708754988e-06 9.439762039e-08 2.744778794e-05 )
( 2.122578007e-05 -2.959627864e-06 4.298387637e-07 9.434779713e-06 1.180188036e-07 2.825543015e-05 )
( 2.196631249e-05 -4.785492365e-06 2.144276152e-07 1.197517577e-05 1.905893185e-07 2.774806853e-05 )
( 2.143517668e-05 -3.84347095e-06 3.374524624e-07 1.074658303e-05 1.600183737e-07 2.835784653e-05 )
( 2.107305954e-05 -4.945006367e-06 1.260556814e-07 1.22433712e-05 2.873874507e-07 2.786307959e-05 )
( 2.118070734e-05 -4.263873961e-06 2.38690717e-07 1.135839466e-05 2.188811834e-07 2.833641338e-05 )
( 2.435092574e-05 -1.289939064e-06 1.339852247e-07 2.908587021e-06 -5.016299554e-08 2.36353626e-05 )
( 2.423575279e-05 -1.253522896e-06 1.422136648e-07 2.879604381e-06 -5.075639464e-08 2.366793342e-05 )
( 2.394336116e-05 -1.182797632e-06 1.616344463e-07 2.822869419e-06 -5.089415112e-08 2.374391261e-05 )
( 2.406720887e-05 -1.220963782e-06 1.566837398e-07 2.851977342e-06 -5.121340863e-08 2.370095171e-05 )
( 2.375351505e-05 -1.175976649e-06 2.795975718e-07 3.395081421e-06 -6.788719986e-08 2.469796163e-05 )
( 2.374261749e-05 -1.171978852e-06 2.801158985e-07 3.390245183e-06 -6.75740921e-08 2.470117579e-05 )
( 2.339331877e-05 -1.047773935e-06 3.057342042e-07 3.276886446e-06 -6.058174051e-08 2.488473547e-05 )
( 2.340540959e-05 -1.052319021e-06 3.051744955e-07 3.282694479e-06 -6.091175209e-08 2.488059181e-05 )
( 2.324965317e-05 -9.91438128e-07 1.914962127e-07 2.701829317e-06 -4.206648185e-08 2.400854646e-05 )
( 2.340927676e-05 -1.044661644e-06 1.814433119e-07 2.739525144e-06 -4.318305713e-08 2.392902752e-05 )
( 2.37595923e-05 -1.137737172e-06 1.646418184e-07 2.805493523e-06 -4.810554088e-08 2.379221041e-05 )
( 2.361328552e-05 -1.091006993e-06 1.707996518e-07 2.771867685e-06 -4.622393845e-08 2.385683911e-05 )
( 2.300821689e-05 -1.087076953e-06 4.419904656e-07 4.062612334e-06 -7.493346033e-08 2.596900777e-05 )
( 2.245429641e-05 -9.724169558e-07 4.737555628e-07 4.272069873e-06 -5.667320835e-08 2.656123615e-05 )
( 2.26675329e-05 -9.497309179e-07 4.64183131e-07 3.957583431e-06 -6.40001474e-08 2.625607885e-05 )
( 2.230987047e-05 -1.185964948e-06 4.376435925e-07 4.909873496e-06 -4.699966283e-08 2.662668521e-05 )
( 2.20437505e-05 -1.49907396e-06 3.949856193e-07 5.876898285e-06 -2.891155759e-08 2.695596595e-05 )
( 2.199857772e-05 -1.473160864e-06 3.955219654e-07 5.851811238e-06 -2.530374843e-08 2.701592894e-05 )
( 2.264452269e-05 -8.07319509e-07 3.77441097e-07 3.090383188e-06 -5.401001246e-08 2.544056224e-05 )
( 2.266237243e-05 -8.126233979e-07 3.76806895e-07 3.097638e-06 -5.426387872e-08 2.543416667e-05 )
( 2.299035441e-05 -9.118132311e-07 3.415795504e-07 3.185739843e-06 -5.60258151e-08 2.514653534e-05 )
( 2.297420542e-05 -9.066785651e-07 3.42354781e-07 3.178295856e-06 -5.573044959e-08 2.515238884e-05 )
( 2.427167055e-05 -1.175998932e-06 6.088970395e-08 2.275067345e-06 -2.469279359e-08 2.26041484e-05 )
( 2.418909207e-05 -1.170404516e-06 5.910959189e-08 2.268898243e-06 -2.330685156e-08 2.260595829e-05 )
( 2.39821311e-05 -1.145710371e-06 5.941245718e-08 2.23659822e-06 -2.265600152e-08 2.261460031e-05 )
( 2.408629371e-05 -1.155881932e-06 5.794946389e-08 2.250053058e-06 -2.255887743e-08 2.261700502e-05 )
( 2.347999362e-05 -1.064958383e-06 7.11894188e-08 2.198516313e-06 -2.591851178e-08 2.272966231e-05 )
( 2.360541293e-05 -1.083730126e-06 6.787709594e-08 2.203947588e-06 -2.431472268e-08 2.269945253e-05 )
( 2.385313746e-05 -1.120194156e-06 6.147499221e-08 2.217027031e-06 -2.363896989e-08 2.263202441e-05 )
( 2.374033647e-05 -1.106036962e-06 6.316431467e-08 2.210853836e-06 -2.361990248e-08 2.264719842e-05 )
( 2.401680285e-05 -1.063134505e-06 1.161044025e-07 1.863048169e-06 -2.511472097e-08 2.186100755e-05 )
( 2.395233787e-05 -1.05375068e-06 1.049203107e-07 1.847125645e-06 -2.182363623e-08 2.183630386e-05 )
( 2.379297621e-05 -1.032637329e-06 8.153183018e-08 1.827221467e-06 -1.775738845e-08 2.179471994e-05 )
( 2.386131382e-05 -1.04374692e-06 9.318744532e-08 1.842842266e-06 -2.019877066e-08 2.180870433e-05 )
( 2.342002699e-05 -9.946688806e-07 4.465789516e-08 1.788331474e-06 -1.325890508e-08 2.174530709e-05 )
( 2.349986789e-05 -1.004314754e-06 5.28035855e-08 1.804757858e-06 -1.45411061e-08 2.174543806e-05 )
( 2.368935566e-05 -1.021714866e-06 7.197215268e-08 1.825053118e-06 -1.623470247e-08 2.177230635e-05 )
( 2.360463805e-05 -1.011165182e-06 6.304596667e-08 1.806778528e-06 -1.505690506e-08 2.175509871e-05 )
( 2.126698382e-05 -1.692860451e-06 4.041418151e-07 6.937575108e-06 4.581785262e-08 2.789535574e-05 )
( 2.144329846e-05 -1.171958843e-06 4.097511805e-07 5.619277545e-06 8.591924505e-09 2.775599205e-05 )
( 2.149896318e-05 -1.205458602e-06 4.070220427e-07 5.651028914e-06 6.054333923e-09 2.768767081e-05 )
( 2.060418956e-05 -1.880841637e-06 5.03584431e-07 7.873723916e-06 1.07284194e-07 2.900450454e-05 )
( 2.043807035e-05 -1.117823672e-06 4.755532075e-07 6.442823633e-06 8.147231512e-08 2.91866163e-05 )
( 2.12186751e-05 -1.692108412e-06 4.08654671e-07 6.974963526e-06 5.015942861e-08 2.797015622e-05 )
( 2.066013803e-05 -2.599984555e-06 4.714596571e-07 9.167752069e-06 1.313808298e-07 2.921105624e-05 )
( 1.990926285e-05 -1.425005962e-06 5.646365366e-07 7.57275393e-06 1.3521894e-07 3.016777737e-05 )
( 2.077626959e-05 -3.344149718e-06 3.618434903e-07 1.029382929e-05 1.83468444e-07 2.922957719e-05 )
( 2.000777204e-05 -3.755777016e-06 1.870295847e-07 1.124829487e-05 3.160869824e-07 2.966773718e-05 )
( 2.067501555e-05 -4.032055131e-06 2.216650898e-07 1.118634191e-05 2.344503827e-07 2.877483712e-05 )
( 1.954824438e-05 -2.59843091e-06 3.560287212e-07 9.921576748e-06 2.601472602e-07 3.081278919e-05 )
( 2.330581992e-05 -1.021533308e-06 7.476763386e-08 2.172670065e-06 -2.682872058e-08 2.276022133e-05 )
( 2.314731682e-05 -9.88180318e-07 8.034957943e-08 2.146975703e-06 -2.729400528e-08 2.2771972e-05 )
( 2.280126864e-05 -9.155846215e-07 9.237394494e-08 2.107599812e-06 -2.770460483e-08 2.287052121e-05 )
( 2.2960774e-05 -9.449256595e-07 9.084794783e-08 2.119885721e-06 -2.817732003e-08 2.282567402e-05 )
( 2.302800385e-05 -9.305207413e-07 2.028292272e-07 2.673243898e-06 -3.879078037e-08 2.409323133e-05 )
( 2.285345909e-05 -8.678424024e-07 2.123464782e-07 2.628968559e-06 -3.753270761e-08 2.418477561e-05 )
( 2.239892638e-05 -7.247374469e-07 2.352666968e-07 2.522493105e-06 -3.245385116e-08 2.436498835e-05 )
( 2.260114343e-05 -8.052917906e-07 2.229221252e-07 2.583415608e-06 -3.467572185e-08 2.427774598e-05 )
( 2.211523497e-05 -7.445869983e-07 1.314206486e-07 2.061078249e-06 -2.218650508e-08 2.325210517e-05 )
( 2.222423063e-05 -7.760546623e-07 1.090133566e-07 2.054965307e-06 -2.253121245e-08 2.312823563e-05 )
( 2.261580812e-05 -8.66854009e-07 9.400694978e-08 2.091534043e-06 -2.620602935e-08 2.295229206e-05 )
( 2.244790448e-05 -8.321995324e-07 9.894434072e-08 2.080948207e-06 -2.375576713e-08 2.302573193e-05 )
( 2.218112786e-05 -6.492327884e-07 4.082966996e-07 3.000486004e-06 -4.868536863e-08 2.580726868e-05 )
( 2.216298162e-05 -6.428822417e-07 4.090732659e-07 2.994031092e-06 -4.833445288e-08 2.581730405e-05 )
( 2.203792246e-05 -7.029162248e-07 5.01041086e-07 3.913292403e-06 -4.317226399e-08 2.700219738e-05 )
( 2.208327351e-05 -6.252098501e-07 4.955143709e-07 3.521471626e-06 -4.581267987e-08 2.672405208e-05 )
( 2.206394311e-05 -6.168631899e-07 4.960994033e-07 3.51171866e-06 -4.523529284e-08 2.673754534e-05 )
( 2.149685497e-05 -3.970137925e-07 4.412040369e-07 2.787610129e-06 -3.519011216e-08 2.630074596e-05 )
( 2.149549982e-05 -3.793285828e-07 4.734255583e-07 2.943444997e-06 -3.207075139e-08 2.662341831e-05 )
( 2.153008609e-05 -4.087262084e-07 4.409305916e-07 2.803138841e-06 -3.577084584e-08 2.628910988e-05 )
( 2.188035614e-05 -9.648002788e-07 4.494233679e-07 4.751692813e-06 -2.777072972e-08 2.71677909e-05 )
( 2.156139089e-05 -8.27142344e-07 4.628219585e-07 4.702288606e-06 -1.621924639e-08 2.762009535e-05 )
( 2.162665987e-05 -5.293194363e-07 3.32816569e-07 2.467291097e-06 -3.740343502e-08 2.515326378e-05 )
( 2.185897029e-05 -5.935630725e-07 3.224365628e-07 2.510378636e-06 -3.516423064e-08 2.499850052e-05 )
( 2.206904537e-05 -6.38593292e-07 2.579042189e-07 2.484906418e-06 -3.128388926e-08 2.453333764e-05 )
( 2.188774488e-05 -5.927767006e-07 2.810677415e-07 2.468942057e-06 -3.302876195e-08 2.469654464e-05 )
( 2.33056744e-05 -9.853093843e-07 3.922635727e-08 1.787546466e-06 -1.113081005e-08 2.174367728e-05 )
( 2.32261882e-05 -9.759646673e-07 3.302259088e-08 1.776808517e-06 -9.027670167e-09 2.176011003e-05 )
( 2.300563756e-05 -9.542653743e-07 2.957665934e-08 1.754305117e-06 -7.351965703e-09 2.17775505e-05 )
( 2.310457421e-05 -9.673434533e-07 3.139652804e-08 1.77228776e-06 -7.907981825e-09 2.176389717e-05 )
( 2.244839379e-05 -8.809511769e-07 3.67033266e-08 1.734002012e-06 -1.150359896e-08 2.190927808e-05 )
( 2.257904816e-05 -9.028038903e-07 3.364495882e-08 1.738208312e-06 -9.832508141e-09 2.185040648e-05 )
( 2.285634582e-05 -9.394542531e-07 3.030496742e-08 1.750340289e-06 -7.506718802e-09 2.178618342e-05 )
( 2.273782593e-05 -9.213799217e-07 3.173364505e-08 1.736306785e-06 -8.301018539e-09 2.181680247e-05 )
( 2.325740206e-05 -9.539821804e-07 9.930702305e-08 1.583946982e-06 -2.380940956e-08 2.120124736e-05 )
( 2.317607141e-05 -9.451107417e-07 8.756387615e-08 1.574464932e-06 -2.136545163e-08 2.117309305e-05 )
( 2.300511733e-05 -9.274763215e-07 6.252349749e-08 1.561607633e-06 -1.675660499e-08 2.113627488e-05 )
( 2.308532021e-05 -9.358532225e-07 7.544513636e-08 1.568429525e-06 -1.887016765e-08 2.114851304e-05 )
( 2.260497604e-05 -8.942169529e-07 2.202005511e-08 1.531273369e-06 -1.222772372e-08 2.109485467e-05 )
( 2.270340337e-05 -9.019918252e-07 3.076212352e-08 1.53962219e-06 -1.355941226e-08 2.109612069e-05 )
( 2.289791519e-05 -9.162408787e-07 5.263221681e-08 1.55427756e-06 -1.514918502e-08 2.111384674e-05 )
( 2.280474655e-05 -9.090548474e-07 4.159922184e-08 1.545410214e-06 -1.424391805e-08 2.110234345e-05 )
( 2.054222568e-05 -6.107699733e-07 4.595840153e-07 5.176791092e-06 4.384911989e-08 2.901009793e-05 )
( 2.046772897e-05 -5.539778272e-07 4.658615467e-07 5.122143648e-06 4.597536929e-08 2.912608761e-05 )
( 2.007164221e-05 -4.660069521e-07 4.853364999e-07 5.334879006e-06 7.305936833e-08 2.971624417e-05 )
( 2.094041156e-05 -5.578882565e-07 4.82184646e-07 4.614585578e-06 8.957998787e-09 2.848938857e-05 )
( 2.131311885e-05 -7.296076774e-07 4.651196832e-07 4.754259862e-06 -9.007820045e-10 2.803446841e-05 )
( 2.039258652e-05 -1.094487288e-06 4.816940304e-07 6.43331623e-06 8.357442738e-08 2.925947956e-05 )
( 1.977921784e-05 -7.070700008e-07 5.563476861e-07 6.194351045e-06 1.144975244e-07 3.030136213e-05 )
( 1.973866165e-05 -3.140103786e-07 5.208283937e-07 5.402690931e-06 9.481530583e-08 3.034995825e-05 )
( 1.997738764e-05 -2.122554633e-06 5.080253231e-07 8.839075235e-06 1.631320288e-07 3.028978426e-05 )
( 1.98641992e-05 -1.425467076e-06 5.682156825e-07 7.610366083e-06 1.374715168e-07 3.025435944e-05 )
( 1.904968303e-05 -7.808570217e-07 6.44939405e-07 7.135241503e-06 1.778546732e-07 3.176171595e-05 )
( 1.884233825e-05 -1.088185329e-07 6.522872127e-07 5.928990049e-06 1.63684021e-07 3.200747233e-05 )
( 1.880407217e-05 -3.716671415e-08 6.524624041e-07 5.803221939e-06 1.622286163e-07 3.205368193e-05 )
( 1.972361861e-05 -6.719697012e-07 5.624100368e-07 6.171350378e-06 1.172625446e-07 3.039104922e-05 )
( 2.018604391e-05 -2.967715318e-06 3.573758534e-07 1.006069579e-05 2.107544219e-07 3.000454308e-05 )
( 1.88689628e-05 -2.002120709e-06 4.057035596e-07 9.522036635e-06 3.046781103e-07 3.192726581e-05 )
( 1.895036075e-05 -2.725175364e-06 2.323826891e-07 1.046547459e-05 3.578279859e-07 3.141634443e-05 )
( 1.849214641e-05 -1.000909492e-06 6.02525688e-07 8.167205124e-06 2.637930265e-07 3.291577013e-05 )
( 2.225129174e-05 -8.450790574e-07 3.803073056e-08 1.716773113e-06 -1.186682574e-08 2.19234189e-05 )
( 2.20856964e-05 -8.099730167e-07 4.097400819e-08 1.695473998e-06 -1.302006059e-08 2.197174035e-05 )
( 2.171850792e-05 -7.414101333e-07 4.79064326e-08 1.672289045e-06 -1.348426615e-08 2.210066486e-05 )
( 2.188233884e-05 -7.787996879e-07 4.638540929e-08 1.687422127e-06 -1.375450598e-08 2.202176074e-05 )
( 2.198379116e-05 -6.920856777e-07 1.342256297e-07 2.066950856e-06 -2.399120369e-08 2.345257053e-05 )
( 2.178921204e-05 -6.388392535e-07 1.396976188e-07 2.039259243e-06 -2.424011392e-08 2.354025128e-05 )
( 2.122968363e-05 -4.895373422e-07 1.567693175e-07 1.949312264e-06 -2.273497834e-08 2.372161907e-05 )
( 2.147890336e-05 -5.591236913e-07 1.508058745e-07 1.995106686e-06 -2.292545354e-08 2.365499677e-05 )
( 2.082775609e-05 -5.829051588e-07 8.233614324e-08 1.672125791e-06 -1.066489475e-08 2.244306415e-05 )
( 2.124143975e-05 -6.345416068e-07 7.532803181e-08 1.701001338e-06 -1.020273643e-08 2.246782606e-05 )
( 2.153574314e-05 -7.070505603e-07 4.856067903e-08 1.681616368e-06 -1.234271352e-08 2.219601811e-05 )
( 2.13778967e-05 -6.666823538e-07 5.355327204e-08 1.676567308e-06 -1.123348348e-08 2.231305189e-05 )
( 2.13406056e-05 -4.12208351e-07 3.531224877e-07 2.413117045e-06 -3.634582413e-08 2.543315713e-05 )
( 2.115036114e-05 -3.355281137e-07 3.687235903e-07 2.386567303e-06 -3.398299953e-08 2.566128751e-05 )
( 2.14879401e-05 -4.469914359e-07 5.229816225e-07 3.705823474e-06 -2.958836554e-08 2.754204979e-05 )
( 2.155678521e-05 -4.195457279e-07 5.18328477e-07 3.360197297e-06 -3.272910121e-08 2.720369412e-05 )
( 2.157685958e-05 -4.282443911e-07 5.177085427e-07 3.369347723e-06 -3.322151088e-08 2.718834003e-05 )
( 2.120947829e-05 -2.82114712e-07 4.86973363e-07 2.871562174e-06 -2.762026163e-08 2.686193693e-05 )
( 2.076664896e-05 -1.36670252e-07 4.494577297e-07 2.459748885e-06 -2.238983221e-08 2.659104575e-05 )
( 2.063706052e-05 -1.409065788e-07 4.065722123e-07 2.293556236e-06 -2.364694218e-08 2.619228326e-05 )
( 2.088799374e-05 -2.251025961e-07 3.919635674e-07 2.329934659e-06 -2.779867891e-08 2.596545892e-05 )
( 2.10947419e-05 -3.017456436e-07 5.359981401e-07 3.707134056e-06 -1.844189512e-08 2.80529548e-05 )
( 1.830613837e-05 -1.909430836e-09 1.327295678e-07 1.446071565e-06 -1.86698621e-08 2.361744737e-05 )
( 1.906990656e-05 -1.215248204e-07 1.312857307e-07 1.538438823e-06 -1.905375413e-08 2.352735464e-05 )
( 2.078836769e-05 -3.759741389e-07 1.629929471e-07 1.869277412e-06 -2.178521896e-08 2.379074249e-05 )
( 2.063395368e-05 -3.434936957e-07 1.943457875e-07 1.893280341e-06 -2.374500241e-08 2.402253085e-05 )
( 2.24952928e-05 -8.840511327e-07 1.52218611e-08 1.52655798e-06 -1.000763561e-08 2.109576781e-05 )
( 2.238669913e-05 -8.750111533e-07 9.673961188e-09 1.517949727e-06 -8.413520547e-09 2.110302376e-05 )
( 2.21521841e-05 -8.547076504e-07 3.205336885e-09 1.50285905e-06 -5.765598665e-09 2.112856055e-05 )
( 2.227608093e-05 -8.667970519e-07 4.400462661e-09 1.514490123e-06 -7.232948462e-09 2.111804497e-05 )
( 2.154827052e-05 -7.790216614e-07 1.667493699e-09 1.474803867e-06 -7.560835513e-09 2.123563354e-05 )
( 2.171336746e-05 -8.048649534e-07 1.052693044e-09 1.485246457e-06 -7.080980691e-09 2.120217869e-05 )
( 2.201354982e-05 -8.407113228e-07 8.811005259e-10 1.497213248e-06 -5.83580162e-09 2.114471317e-05 )
( 2.186972051e-05 -8.235805922e-07 1.087533175e-09 1.488290536e-06 -5.846350959e-09 2.11681745e-05 )