/*--------------------------------*- C++ -*----------------------------------*\
  =========                 |
  \\      /  F ield         | OpenFOAM: The Open Source CFD Toolbox
   \\    /   O peration     | Website:  https://openfoam.org
    \\  /    A nd           | Version:  8
     \\/     M anipulation  |
\*---------------------------------------------------------------------------*/






FoamFile
{
    version     2.0;
    format      ascii;
    class       volScalarField;
    location    "0";
    object      pDDES;
}
// * * * * * * * * * * * * * * * * * * * * * * * * * * * * * * * * * * * * * //

dimensions      [0 2 -2 0 0 0 0];


internalField   nonuniform List<scalar> 
14418
(
-3.489868504e-06
-4.299132343e-06
-3.301812512e-06
-4.113378964e-06
-6.245501027e-06
-3.275617928e-06
-4.130552497e-06
-6.056659458e-06
-7.914914931e-06
-3.423412181e-06
-4.610955784e-06
-6.079602827e-06
-7.867941349e-06
-9.597843928e-06
-3.674013442e-06
-5.426292319e-06
-6.502338692e-06
-7.889620974e-06
-9.562647392e-06
-1.120748129e-05
-4.3003879e-06
-5.746353963e-06
-7.243858363e-06
-8.094933946e-06
-9.530436728e-06
-1.112865539e-05
-1.279392836e-05
-5.73375155e-06
-6.792419754e-06
-8.041103683e-06
-8.766500287e-06
-9.715028682e-06
-1.114103361e-05
-1.272795089e-05
-1.428992618e-05
-7.733559869e-06
-9.002684237e-06
-8.742012142e-06
-9.668638995e-06
-1.034669185e-05
-1.130807868e-05
-1.269664517e-05
-1.422392779e-05
-1.56880069e-05
-9.517254512e-06
-1.087615783e-05
-1.035919649e-05
-1.043259363e-05
-1.119533044e-05
-1.192225318e-05
-1.285686267e-05
-1.419366163e-05
-1.561844329e-05
-1.705247814e-05
-1.141387384e-05
-1.24093458e-05
-1.203693046e-05
-1.170288033e-05
-1.276360672e-05
-1.345714463e-05
-1.434959813e-05
-1.562875696e-05
-1.702770714e-05
-1.833001807e-05
-1.424958464e-05
-1.291984699e-05
-1.394561605e-05
-1.368563608e-05
-1.28570191e-05
-1.429862823e-05
-1.494011121e-05
-1.578408956e-05
-1.701198562e-05
-1.831353075e-05
-1.957539098e-05
-1.682470793e-05
-1.505200635e-05
-1.726821574e-05
-1.547294778e-05
-1.5222824e-05
-1.521846752e-05
-1.577970761e-05
-1.636562592e-05
-1.716687621e-05
-1.835013063e-05
-1.957644417e-05
-2.079329533e-05
-1.951675949e-05
-1.767352114e-05
-1.994877675e-05
-2.075783777e-05
-1.66119371e-05
-1.694323328e-05
-1.679034176e-05
-1.720196087e-05
-1.773298209e-05
-1.850646186e-05
-1.96217261e-05
-2.081250204e-05
-2.187722203e-05
-2.227478217e-05
-2.093889816e-05
-2.266099182e-05
-2.350380055e-05
-2.364317697e-05
-1.839377728e-05
-1.967122989e-05
-1.8359151e-05
-1.822820741e-05
-1.85633362e-05
-1.904431883e-05
-1.977331522e-05
-2.082940046e-05
-2.189304178e-05
-2.291832243e-05
-2.427747131e-05
-2.487370875e-05
-2.565484101e-05
-2.630149902e-05
-2.642982145e-05
-2.624678746e-05
-2.130701432e-05
-2.247565317e-05
-1.970846097e-05
-1.968167271e-05
-1.986111056e-05
-2.028391282e-05
-2.096784374e-05
-2.193714499e-05
-2.29426405e-05
-2.391605085e-05
-2.892546763e-05
-2.724768638e-05
-2.932418283e-05
-2.938375837e-05
-2.926517845e-05
-2.905382098e-05
-2.856818719e-05
-2.395779302e-05
-2.501080235e-05
-2.099979247e-05
-2.099995982e-05
-2.109466186e-05
-2.146221595e-05
-2.207489524e-05
-2.297936589e-05
-2.393502473e-05
-2.48153774e-05
-3.34798533e-05
-3.073331391e-05
-3.25916335e-05
-3.272903996e-05
-3.238222416e-05
-3.190794814e-05
-3.138077955e-05
-3.060042945e-05
-2.633491022e-05
-2.72672205e-05
-2.232564293e-05
-2.35137195e-05
-2.22197632e-05
-2.226394281e-05
-2.256176231e-05
-2.311194294e-05
-2.394709918e-05
-2.48299657e-05
-2.562925874e-05
-3.908498547e-05
-3.531326365e-05
-3.638614362e-05
-3.638327325e-05
-3.576601739e-05
-3.504175766e-05
-3.423766975e-05
-3.341184492e-05
-3.234058022e-05
-2.842665708e-05
-2.923585089e-05
-2.470261461e-05
-2.575402868e-05
-2.337908882e-05
-2.336370926e-05
-2.359393875e-05
-2.407684588e-05
-2.485088589e-05
-2.563570888e-05
-2.639765262e-05
-4.568132135e-05
-4.141117824e-05
-4.079103019e-05
-4.042968794e-05
-3.946691868e-05
-3.844413368e-05
-3.737412044e-05
-3.626167745e-05
-3.514353011e-05
-3.378256224e-05
-3.023007594e-05
-3.091498365e-05
-2.680087346e-05
-2.771186701e-05
-2.446431427e-05
-2.439111631e-05
-2.455866706e-05
-2.497419518e-05
-2.566078183e-05
-2.641189894e-05
-2.704902181e-05
-4.916705075e-05
-4.722481026e-05
-4.624924259e-05
-4.494865789e-05
-4.356526551e-05
-4.216685193e-05
-4.078253187e-05
-3.93920709e-05
-3.798129183e-05
-3.65737651e-05
-3.492535689e-05
-3.17401973e-05
-3.229673894e-05
-2.861244866e-05
-2.937920181e-05
-2.548459452e-05
-2.642806976e-05
-2.534762643e-05
-2.545162715e-05
-2.578492058e-05
-2.640706953e-05
-2.705073712e-05
-2.764183591e-05
-5.030301327e-05
-5.599165161e-05
-5.172552119e-05
-4.998072836e-05
-4.812245606e-05
-4.628403258e-05
-4.45135156e-05
-4.279926361e-05
-4.110219015e-05
-3.939766248e-05
-3.770257899e-05
-3.576969175e-05
-3.295191709e-05
-3.338264651e-05
-3.013263995e-05
-3.07538503e-05
-2.730327833e-05
-2.809985381e-05
-2.62319536e-05
-2.62672238e-05
-2.65286435e-05
-2.707138628e-05
-2.76517203e-05
-2.816015876e-05
-5.682104529e-05
-5.70995071e-05
-6.365351146e-05
-5.541596329e-05
-5.314471491e-05
-5.083451833e-05
-4.863112918e-05
-4.653186988e-05
-4.450547203e-05
-4.250860366e-05
-4.051234646e-05
-3.853100498e-05
-3.631446452e-05
-3.386787648e-05
-3.417041444e-05
-3.135869338e-05
-3.18341954e-05
-2.882945228e-05
-2.948028123e-05
-2.704312647e-05
-2.700914047e-05
-2.719350596e-05
-2.766524449e-05
-2.816340566e-05
-2.861774919e-05
-6.11597352e-05
-6.344058056e-05
-6.462786405e-05
-7.16906361e-05
-5.848664296e-05
-5.580310244e-05
-5.314894224e-05
-5.0643328e-05
-4.823644849e-05
-4.590790923e-05
-4.361350875e-05
-4.132627873e-05
-3.905899939e-05
-3.655953697e-05
-3.44854343e-05
-3.466019552e-05
-3.228845162e-05
-3.261623715e-05
-3.006301813e-05
-3.056696005e-05
-2.778218186e-05
-2.844830124e-05
-2.767834121e-05
-2.779078568e-05
-2.816931374e-05
-2.861293069e-05
-2.90043954e-05
-6.402106374e-05
-6.72079841e-05
-7.018037286e-05
-7.253360673e-05
-8.051010809e-05
-6.103212945e-05
-5.802803207e-05
-5.512859207e-05
-5.23351373e-05
-4.963720858e-05
-4.700896898e-05
-4.441763303e-05
-4.183931014e-05
-3.928623482e-05
-3.650600047e-05
-3.480449595e-05
-3.485094567e-05
-3.292147812e-05
-3.310355896e-05
-3.100190952e-05
-3.135734005e-05
-2.903965651e-05
-2.95573227e-05
-2.82739129e-05
-2.830330413e-05
-2.86265531e-05
-2.900583968e-05
-2.932056668e-05
-6.63361061e-05
-6.971475523e-05
-7.342408935e-05
-7.727672346e-05
-8.135107782e-05
-6.312126061e-05
-5.992063234e-05
-5.678178422e-05
-5.372334272e-05
-5.07351906e-05
-4.780824383e-05
-4.492000153e-05
-4.205046935e-05
-3.921313328e-05
-3.615610694e-05
-3.482530883e-05
-3.474489858e-05
-3.325856596e-05
-3.329315587e-05
-3.164517329e-05
-3.185399328e-05
-3.000148899e-05
-3.037148417e-05
-2.879655949e-05
-2.875570499e-05
-2.901094194e-05
-2.931967174e-05
-2.953802323e-05
-6.821478746e-05
-7.164702401e-05
-7.537279453e-05
-7.966197154e-05
-8.448298468e-05
-6.488071085e-05
-6.149496767e-05
-5.812865129e-05
-5.48057069e-05
-5.152717495e-05
-4.830279431e-05
-4.511813313e-05
-4.195848305e-05
-3.884008402e-05
-3.5512865e-05
-3.455095793e-05
-3.434497557e-05
-3.329921674e-05
-3.318852032e-05
-3.199392086e-05
-3.205442044e-05
-3.066847421e-05
-3.089216261e-05
-2.924579712e-05
-2.962142025e-05
-2.913440403e-05
-2.932138159e-05
-2.953770854e-05
-2.968696208e-05
-6.979118916e-05
-7.319077849e-05
-7.677043322e-05
-8.077288658e-05
-8.564067684e-05
-6.63430983e-05
-6.276629574e-05
-5.917075396e-05
-5.557759505e-05
-5.200879605e-05
-4.848797107e-05
-4.500821524e-05
-4.156225623e-05
-3.816921162e-05
-3.458127321e-05
-3.398524859e-05
-3.365562225e-05
-3.304656275e-05
-3.27924281e-05
-3.204767563e-05
-3.196257239e-05
-3.104201096e-05
-3.111815386e-05
-2.992437112e-05
-3.015301627e-05
-2.943841173e-05
-2.954819502e-05
-2.969319758e-05
-2.978353405e-05
-7.111624291e-05
-7.449096302e-05
-7.78687172e-05
-8.145132597e-05
-8.567743498e-05
-6.751700857e-05
-6.37425328e-05
-5.990388308e-05
-5.603425961e-05
-5.217372018e-05
-4.835750951e-05
-4.458735202e-05
-4.086219269e-05
-3.720411769e-05
-3.313226625e-05
-3.268216824e-05
-3.336844384e-05
-3.250569716e-05
-3.211034345e-05
-3.181043212e-05
-3.158066465e-05
-3.112193008e-05
-3.105320138e-05
-3.030910193e-05
-3.039117291e-05
-2.966566899e-05
-2.970310925e-05
-2.978563134e-05
-2.979626515e-05
-7.218175597e-05
-7.559824007e-05
-7.881061902e-05
-8.199722652e-05
-8.550817438e-05
-6.841203867e-05
-6.442407903e-05
-6.032116653e-05
-5.616842827e-05
-5.201414751e-05
-4.790609455e-05
-4.385405191e-05
-3.986072988e-05
-3.595122325e-05
-3.167988689e-05
-3.114658102e-05
-3.200006176e-05
-3.143375216e-05
-3.188457777e-05
-3.128599565e-05
-3.091320104e-05
-3.091258259e-05
-3.069953891e-05
-3.040083357e-05
-3.033843495e-05
-2.982240403e-05
-2.990356552e-05
-2.97906081e-05
-2.979757483e-05
-2.973845221e-05
-7.298921992e-05
-7.650683256e-05
-7.963940152e-05
-8.253660053e-05
-8.546226309e-05
-6.903146277e-05
-6.479098374e-05
-6.041328379e-05
-5.596934716e-05
-5.152204176e-05
-4.713051749e-05
-4.280915891e-05
-3.856307376e-05
-3.441866284e-05
-3.047820064e-05
-2.996069634e-05
-3.057729191e-05
-2.99115236e-05
-3.059947267e-05
-2.992134796e-05
-3.013965579e-05
-3.041503442e-05
-3.005825602e-05
-3.020227814e-05
-2.999455501e-05
-2.991202746e-05
-2.984756611e-05
-2.979917736e-05
-2.973895425e-05
-2.962255348e-05
-7.354987611e-05
-7.721551083e-05
-8.035657083e-05
-8.309550321e-05
-8.563194569e-05
-6.933810801e-05
-6.482895697e-05
-6.016480256e-05
-5.542622239e-05
-5.069290637e-05
-4.603073467e-05
-4.145656931e-05
-3.697690045e-05
-3.261775055e-05
-2.96264443e-05
-2.911117917e-05
-2.938440593e-05
-2.873596895e-05
-2.92090499e-05
-2.841565583e-05
-2.893971214e-05
-2.814826985e-05
-2.815446715e-05
-2.971111826e-05
-2.935972952e-05
-2.970598871e-05
-2.948940892e-05
-2.973484879e-05
-2.961617065e-05
-2.94139154e-05
-7.37964001e-05
-7.773686229e-05
-8.096089005e-05
-8.366371912e-05
-8.60092041e-05
-6.93139591e-05
-6.452078378e-05
-5.955933375e-05
-5.453166887e-05
-4.952574818e-05
-4.46094673e-05
-3.980346082e-05
-3.511280738e-05
-3.056195419e-05
-2.894070894e-05
-2.852076432e-05
-2.843739094e-05
-2.788160236e-05
-2.803947245e-05
-2.72763682e-05
-2.758459595e-05
-2.592586134e-05
-2.703433711e-05
-2.614918048e-05
-2.667032823e-05
-2.918370592e-05
-2.882799163e-05
-2.959923586e-05
-2.937805766e-05
-2.940359082e-05
-2.910607873e-05
-7.372955588e-05
-7.7963683e-05
-8.144491585e-05
-8.42183872e-05
-8.655409329e-05
-6.893837417e-05
-6.384043081e-05
-5.858643635e-05
-5.328317275e-05
-4.802228068e-05
-4.2873653e-05
-3.786048183e-05
-3.298420052e-05
-2.826730088e-05
-2.842074355e-05
-2.785134348e-05
-2.794411012e-05
-2.720683005e-05
-2.721931378e-05
-2.649990347e-05
-2.646484245e-05
-2.349004171e-05
-2.392104943e-05
-2.489934923e-05
-2.572112135e-05
-2.469402352e-05
-2.557588959e-05
-2.905141446e-05
-2.87188559e-05
-2.908303759e-05
-2.881275213e-05
-7.330281369e-05
-7.790458039e-05
-8.170089131e-05
-8.471758338e-05
-8.7204593e-05
-6.817473331e-05
-6.277607463e-05
-5.724092989e-05
-5.16809705e-05
-4.618829553e-05
-4.083373642e-05
-3.564109647e-05
-3.060726158e-05
-2.575139479e-05
-2.834039515e-05
-2.733085057e-05
-2.785160541e-05
-2.65602921e-05
-2.670693721e-05
-2.586383926e-05
-2.573126585e-05
-2.086017412e-05
-2.255157779e-05
-2.148813655e-05
-2.24968735e-05
-2.362906889e-05
-2.463678175e-05
-2.363677777e-05
-2.487639904e-05
-2.877977386e-05
-2.842315007e-05
-7.247017493e-05
-7.747522613e-05
-8.172572416e-05
-8.506647282e-05
-8.787331899e-05
-6.701264647e-05
-6.131835835e-05
-5.552035145e-05
-4.972923853e-05
-4.403334242e-05
-3.850351641e-05
-3.31616684e-05
-2.80002223e-05
-2.303419387e-05
-2.839565423e-05
-2.725387094e-05
-2.790309372e-05
-2.604682231e-05
-2.662911902e-05
-2.540397691e-05
-2.514414336e-05
-1.805719876e-05
-2.001022585e-05
-1.886992504e-05
-2.132757254e-05
-2.009921627e-05
-2.147295527e-05
-2.258321547e-05
-2.395275806e-05
-2.297470019e-05
-2.428994594e-05
-2.790640974e-05
-7.122135867e-05
-7.663998986e-05
-8.138114208e-05
-8.52228186e-05
-8.844348486e-05
-6.543358177e-05
-5.946247256e-05
-5.34280698e-05
-4.743668251e-05
-4.157124204e-05
-3.589998596e-05
-3.044140794e-05
-2.518384281e-05
-2.013722406e-05
-2.731383029e-05
-2.598582068e-05
-2.671316543e-05
-2.534467239e-05
-2.471466905e-05
-1.510348102e-05
-1.729486939e-05
-1.608731691e-05
-1.883844561e-05
-1.752344906e-05
-2.031853728e-05
-1.911199979e-05
-2.085547203e-05
-2.19432186e-05
-2.332956137e-05
-2.237836088e-05
-2.386382039e-05
-2.734827103e-05
-6.952963304e-05
-7.537078636e-05
-8.063510904e-05
-8.503541176e-05
-8.881939721e-05
-6.343227142e-05
-5.721292473e-05
-5.097279791e-05
-4.481703581e-05
-3.881997691e-05
-3.304317943e-05
-2.750212479e-05
-2.218049303e-05
-1.708340824e-05
-2.606157796e-05
-2.674833559e-05
-2.541460708e-05
-2.465201032e-05
-1.202226122e-05
-1.442793291e-05
-1.31623292e-05
-1.617436283e-05
-1.478413014e-05
-1.78745795e-05
-1.658639667e-05
-1.971407983e-05
-1.85255758e-05
-2.031264194e-05
-2.138743912e-05
-2.283692811e-05
-2.190455234e-05
-2.371917071e-05
-6.738856609e-05
-7.361413009e-05
-7.944737445e-05
-8.447490836e-05
-8.887719014e-05
-6.101802501e-05
-5.457751831e-05
-4.816891305e-05
-4.188976891e-05
-3.580112389e-05
-2.995588693e-05
-2.436750583e-05
-1.901389624e-05
-1.389689351e-05
-2.609073636e-05
-2.542807124e-05
-2.462656266e-05
-8.837349014e-06
-1.143158715e-05
-1.011780478e-05
-1.336136847e-05
-1.190614057e-05
-1.52579405e-05
-1.388814053e-05
-1.731134216e-05
-1.604884528e-05
-1.917582085e-05
-1.799818347e-05
-1.99537717e-05
-2.100047823e-05
-2.273936116e-05
-2.180029878e-05
-2.368842615e-05
-6.48225905e-05
-7.137310604e-05
-7.771071978e-05
-8.347675612e-05
-8.857128705e-05
-5.819239595e-05
-5.157061605e-05
-4.503833043e-05
-3.86790125e-05
-3.253895193e-05
-2.666347245e-05
-2.106249303e-05
-1.57091381e-05
-1.060272007e-05
-2.461481563e-05
-5.573102044e-06
-8.32898877e-06
-6.977047633e-06
-1.042004624e-05
-8.911694749e-06
-1.24885737e-05
-1.105221963e-05
-1.474233704e-05
-1.339555183e-05
-1.67982198e-05
-1.555402378e-05
-1.880998389e-05
-1.762266766e-05
-1.984529263e-05
-2.087593748e-05
-2.279370165e-05
-2.18433197e-05
-2.366056651e-05
-6.181179197e-05
-6.868968194e-05
-7.54651337e-05
-8.185958723e-05
-8.780771896e-05
-5.497207167e-05
-4.821818584e-05
-4.160828394e-05
-3.521165127e-05
-2.906036207e-05
-2.319264058e-05
-1.76133799e-05
-1.229250756e-05
-7.226302387e-06
-2.254280389e-06
-5.143864655e-06
-3.764079793e-06
-7.37470782e-06
-5.823456377e-06
-9.591464732e-06
-8.101896128e-06
-1.201482337e-05
-1.060142858e-05
-1.425533173e-05
-1.292508205e-05
-1.645153498e-05
-1.522599814e-05
-1.868270374e-05
-1.750148112e-05
-1.975702435e-05
-2.082781975e-05
-2.284531547e-05
-2.188138933e-05
-5.838159996e-05
-6.55246622e-05
-7.273333176e-05
-7.970316074e-05
-8.637635619e-05
-5.138932102e-05
-4.455080125e-05
-3.790824121e-05
-3.151631245e-05
-2.539418892e-05
-1.957114546e-05
-1.404773047e-05
-8.790502761e-06
-3.793305268e-06
1.094202958e-06
-1.90039168e-06
-5.031251931e-07
-4.247076049e-06
-2.665174179e-06
-6.59295165e-06
-5.059326668e-06
-9.159165529e-06
-7.691983228e-06
-1.15578041e-05
-1.015834641e-05
-1.391457863e-05
-1.262016303e-05
-1.636175875e-05
-1.513800089e-05
-1.860875273e-05
-1.744891961e-05
-1.972237988e-05
-2.0797459e-05
-5.45730436e-05
-6.190839485e-05
-6.946305075e-05
-7.697888213e-05
-8.432522009e-05
-4.747788262e-05
-4.060002175e-05
-3.396929242e-05
-2.762397708e-05
-2.157012386e-05
-1.582798177e-05
-1.039343078e-05
-5.229944236e-06
-3.29518798e-07
4.447463198e-06
1.377104809e-06
2.781427156e-06
-1.061451371e-06
5.429681096e-07
-3.512145895e-06
-1.946957582e-06
-6.201193628e-06
-4.689371053e-06
-8.729888577e-06
-7.276026736e-06
-1.126104962e-05
-9.873931958e-06
-1.375908323e-05
-1.253851315e-05
-1.635581248e-05
-1.510239599e-05
-1.857957614e-05
-1.74422712e-05
-5.042082557e-05
-5.789222269e-05
-6.569935067e-05
-7.364472549e-05
-8.159942809e-05
-4.327080387e-05
-3.639982606e-05
-2.982476508e-05
-2.356675395e-05
-1.761872045e-05
-1.199258077e-05
-6.678606951e-06
-1.637648325e-06
3.139354249e-06
4.66423171e-06
6.065274192e-06
2.162767487e-06
3.770798457e-06
-3.492106941e-07
1.295074071e-06
-3.160275128e-06
-1.594888886e-06
-5.798447091e-06
-4.300136425e-06
-8.444339073e-06
-7.009265573e-06
-1.115543455e-05
-9.806838534e-06
-1.366125798e-05
-1.246982811e-05
-1.635254739e-05
-1.508495643e-05
-4.595797145e-05
-5.351072832e-05
-6.150295667e-05
-6.976582517e-05
-7.819724851e-05
-3.880348595e-05
-3.198585182e-05
-2.550915815e-05
-1.937707748e-05
-1.357139172e-05
-8.094588338e-06
-2.931362133e-06
1.959780548e-06
5.392333605e-06
6.996432603e-06
2.919224244e-06
4.533692845e-06
6.182219181e-08
1.808253614e-06
-2.780852583e-06
-1.243679776e-06
-5.537074685e-06
-4.048081792e-06
-8.355582395e-06
-6.946639132e-06
-1.109612822e-05
-9.762883565e-06
-1.363716001e-05
-1.244582745e-05
-4.122138125e-05
-4.879756307e-05
-5.691256229e-05
-6.541251787e-05
-7.420109614e-05
-3.411311991e-05
-2.739477168e-05
-2.105719614e-05
-1.508868263e-05
-9.459802641e-06
-4.163483936e-06
8.205838071e-07
6.130331712e-06
7.727678167e-06
3.539209047e-06
5.228218924e-06
4.275797494e-07
2.062044587e-06
-2.534359965e-06
-9.626736528e-07
-5.481387234e-06
-3.996464329e-06
-8.35078481e-06
-6.793769899e-06
-1.107144999e-05
-9.776538718e-06
-3.625016689e-05
-4.379408711e-05
-5.196722486e-05
-6.063475666e-05
-6.969473179e-05
-2.923774264e-05
-2.266336014e-05
-1.650471859e-05
-1.073566455e-05
-5.315223916e-06
-2.284284335e-07
6.857793323e-06
8.459486708e-06
3.863111488e-06
5.480909749e-06
7.278091516e-07
2.261240297e-06
-2.483669277e-06
-9.03583441e-07
-5.340699317e-06
-3.853808266e-06
-8.237902875e-06
-6.594236311e-06
-3.108474266e-05
-3.854202077e-05
-4.671193528e-05
-5.547881301e-05
-6.471955567e-05
-2.421688987e-05
-1.782981235e-05
-1.188823626e-05
-6.351588581e-06
-1.168625204e-06
7.209914656e-06
8.808578059e-06
4.013288617e-06
5.52872325e-06
8.884480849e-07
2.270647428e-06
-2.488271093e-06
-8.771271496e-07
-4.990990419e-06
-3.632005246e-06
-2.576848783e-05
-3.308444138e-05
-4.118918878e-05
-4.999312659e-05
-5.934463115e-05
-1.909216371e-05
-1.293329569e-05
-7.24371057e-06
-1.969329105e-06
7.309917237e-06
8.940639418e-06
4.054734745e-06
5.428403711e-06
9.884111023e-07
2.432949714e-06
-2.363309932e-06
-8.332440302e-07
-2.034702811e-05
-2.746920109e-05
-3.54438489e-05
-4.421790436e-05
-5.362990123e-05
-1.390641955e-05
-8.012467333e-06
-2.606157977e-06
7.253798685e-06
8.803434866e-06
4.083593467e-06
5.36951984e-06
1.131448698e-06
2.639466629e-06
-1.486640031e-05
-2.174546898e-05
-2.952898649e-05
-3.820122583e-05
-4.761444143e-05
-8.701434126e-06
-3.104847337e-06
7.035863746e-06
8.612581041e-06
4.194522262e-06
5.345149475e-06
-9.371930901e-06
-1.596150651e-05
-2.349809984e-05
-3.200016363e-05
-4.134568735e-05
-3.517849336e-06
6.901184861e-06
8.464266102e-06
-3.908127837e-06
-1.016613169e-05
-1.740108019e-05
-2.567020056e-05
-3.487330832e-05
-4.564190749e-05
-4.410906058e-06
-1.129319753e-05
-1.926669211e-05
-2.82547353e-05
-3.882085002e-05
-5.131804573e-05
-4.829511818e-05
-5.234578566e-06
-1.285220969e-05
-2.156199298e-05
-3.187087714e-05
-4.427221575e-05
-4.115458432e-05
-5.809156573e-05
-5.447799049e-05
-6.503885288e-06
-1.485809298e-05
-2.48505421e-05
-3.703823677e-05
-3.390140773e-05
-5.076642628e-05
-4.706619438e-05
-6.264646072e-05
-5.887637599e-05
-8.249914572e-06
-1.78387163e-05
-2.976392716e-05
-2.661301187e-05
-4.322979657e-05
-3.944152559e-05
-5.506249363e-05
-5.120052447e-05
-6.656911137e-05
-6.270413724e-05
-1.09632183e-05
-2.251344995e-05
-1.938905916e-05
-3.557184755e-05
-3.177143299e-05
-4.725495819e-05
-4.328720752e-05
-5.87724644e-05
-5.477664672e-05
-7.007253589e-05
-6.60899459e-05
-1.528659595e-05
-1.227488701e-05
-2.793414933e-05
-2.404680527e-05
-3.928171282e-05
-3.530952745e-05
-5.072142085e-05
-4.661184721e-05
-6.202855729e-05
-5.791076183e-05
-7.342216122e-05
-6.928815856e-05
-2.002718429e-05
-1.61767457e-05
-3.137221938e-05
-2.735294765e-05
-4.248773621e-05
-3.836999531e-05
-5.37331216e-05
-4.951085066e-05
-6.509876403e-05
-6.08478731e-05
-2.311534445e-05
-1.890729436e-05
-3.427685442e-05
-3.009364991e-05
-4.525406621e-05
-4.09901877e-05
-5.654948473e-05
-5.221480387e-05
-6.756692892e-05
-6.319730164e-05
-2.558406413e-05
-2.114902964e-05
-3.674026811e-05
-3.235464828e-05
-4.784797056e-05
-4.345626803e-05
-5.879228047e-05
-5.436524953e-05
-2.758008122e-05
-2.299421249e-05
-3.903465404e-05
-3.438280328e-05
-4.992896356e-05
-4.546806304e-05
-2.929022594e-05
-2.469303945e-05
-4.092667587e-05
-3.605875827e-05
-3.068773731e-05
-2.608360228e-05
-9.271991439e-05
-9.875181422e-05
-9.068117652e-05
-0.0001083917668
-9.754602797e-05
-9.645205864e-05
-8.787093248e-05
-0.0001148591546
-0.0001072706364
-0.00010596629
-9.477444837e-05
-9.327105363e-05
-8.435836207e-05
-0.0001206428205
-0.0001136809296
-0.0001122180838
-0.000104192557
-0.0001022408615
-9.11849711e-05
-8.019338566e-05
-8.945712761e-05
-0.0001262051228
-0.0001194261349
-0.0001179604951
-0.0001104040348
-0.000108370652
-0.0001001426645
-7.545489643e-05
-8.694407006e-05
-8.487454033e-05
-9.796310769e-05
-0.000131254521
-0.0001250311616
-0.0001236251119
-0.0001162083354
-0.0001142956462
-0.0001062764859
-7.017762255e-05
-7.976256893e-05
-8.205130871e-05
-9.550737741e-05
-9.293817857e-05
-0.0001039468916
-0.000135074617
-0.0001301574521
-0.0001287855557
-0.0001219498517
-0.0001200305487
-0.0001121175155
-6.450138608e-05
-7.658825052e-05
-7.404190546e-05
-8.740299381e-05
-9.019130812e-05
-0.0001014287991
-9.87374151e-05
-0.0001096357009
-0.0001375929278
-0.0001340419403
-0.0001326496567
-0.0001271070796
-0.0001251224603
-0.0001178536113
-5.850511297e-05
-7.06738283e-05
-6.799949188e-05
-8.433205949e-05
-8.126704779e-05
-9.294548363e-05
-9.590762056e-05
-0.0001069899808
-0.0001042190343
-0.0001153556223
-0.0001392561535
-0.0001365039934
-0.0001349749364
-0.0001308977808
-0.0001288274943
-0.0001228529727
-5.218062506e-05
-6.456531992e-05
-6.182429934e-05
-7.804777852e-05
-7.502255175e-05
-8.983837324e-05
-8.673303819e-05
-9.825471352e-05
-0.00010129578
-0.0001127192227
-0.0001098757202
-0.0001203444626
-0.0001399962348
-0.0001382240007
-0.0001366950601
-0.0001330750674
-0.0001310706575
-0.0001266527834
-5.807657362e-05
-5.516779856e-05
-7.191716577e-05
-6.874780229e-05
-8.359735511e-05
-8.042959962e-05
-9.515067359e-05
-9.201464854e-05
-0.000103700826
-0.0001068759011
-0.0001176243168
-0.0001147383882
-0.0001240871206
-0.0001400240435
-0.0001390799152
-0.0001376629807
-0.000134777365
-0.0001325833582
-0.0001289971115
-6.524744094e-05
-6.173359725e-05
-7.72265339e-05
-7.374839333e-05
-8.876124048e-05
-8.532554784e-05
-0.0001002705831
-9.678662173e-05
-0.000108365799
-0.0001116544372
-0.0001213273645
-0.0001183839559
-0.0001267599437
-0.0001395688159
-0.0001392240956
-0.0001379688183
-0.0001358792069
-0.0001337897702
-0.0001305106125
-7.010039553e-05
-6.64038962e-05
-8.173611423e-05
-7.805529458e-05
-9.323019185e-05
-8.953124052e-05
-0.0001047947299
-0.0001010379492
-0.0001118605069
-0.0001152301702
-0.000124010432
-0.0001210469927
-0.0001282933808
-0.0001387195371
-0.0001389464305
-0.0001379051391
-0.0001363873598
-0.0001344800694
-0.0001314499677
-7.427099627e-05
-7.042229117e-05
-8.576456457e-05
-8.196147246e-05
-9.734189371e-05
-9.351366316e-05
-0.0001082261442
-0.0001044324308
-0.000114400631
-0.0001178266903
-0.0001259706332
-0.0001230449561
-0.0001293089445
-0.0001376263244
-0.0001383046474
-0.0001374605345
-0.0001365268399
-0.0001347607322
-0.00013224961
-7.803631161e-05
-7.405693759e-05
-8.96243655e-05
-8.568527846e-05
-0.0001006495586
-9.673676686e-05
-0.0001107267308
-0.0001069694335
-0.0001163213892
-0.0001198192185
-0.0001270340726
-0.0001244990563
-0.0001298066636
-0.0001363520278
-0.0001373006962
-0.0001365184289
-0.0001362158364
-0.0001344986813
-0.0001325939811
-8.163957682e-05
-7.75327353e-05
-9.276275523e-05
-8.870880993e-05
-0.0001031462452
-9.920954471e-05
-0.0001125654017
-0.0001088013159
-0.0001177165832
-0.0001212671486
-0.0001275672839
-0.0001252081565
-0.0001301299781
-0.0001348405058
-0.0001360119059
-0.0001351312676
-0.0001352538966
-0.0001335005509
-0.0001323407632
-8.456617797e-05
-8.037794032e-05
-9.518552542e-05
-9.104049241e-05
-0.000104989449
-0.0001010484557
-0.0001138242078
-0.0001099936417
-0.0001185395377
-0.0001221369603
-0.0001276502007
-0.0001252495713
-0.000129837339
-0.0001330108353
-0.00013442419
-0.0001334163389
-0.0001337347639
-0.0001319144212
-0.0001313710673
-8.680352039e-05
-8.254004933e-05
-9.69894536e-05
-9.276720084e-05
-0.000106183601
-0.0001022445358
-0.0001145518472
-0.0001106771015
-0.0001187236776
-0.0001223523868
-0.000127092484
-0.0001244993618
-0.0001289330976
-0.0001308834762
-0.0001325403282
-0.0001319013536
-0.0001314578694
-0.0001300259173
-0.0001298260031
-8.848234575e-05
-8.418384823e-05
-9.815710655e-05
-9.393377695e-05
-0.0001068195706
-0.0001028757542
-0.0001147843432
-0.0001108524011
-0.0001184754947
-0.0001218196267
-0.0001262164151
-0.0001235141244
-0.0001274960669
-0.0001285899489
-0.0001304026082
-0.0001298757998
-0.000129295513
-0.000127993364
-0.0001279746066
-8.969704504e-05
-8.542644355e-05
-9.880092693e-05
-9.466934716e-05
-0.0001070389408
-0.0001030942221
-0.0001146083086
-0.0001107385469
-0.0001179969186
-0.0001211658309
-0.0001249085617
-0.0001223684667
-0.0001257477707
-0.0001280901342
-0.000126201674
-0.0001277010451
-0.0001269807835
-0.000125849183
-0.0001259899582
-9.050806693e-05
-8.624303882e-05
-9.912971291e-05
-9.509907977e-05
-0.0001069472564
-0.0001031266584
-0.0001143345871
-0.0001104181938
-0.000117256277
-0.0001201937266
-0.0001233234652
-0.0001209195179
-0.0001238589321
-0.0001256530086
-0.0001239298726
-0.0001254127856
-0.0001245461463
-0.0001236245735
-0.0001239282137
-9.09610535e-05
-8.661071479e-05
-9.924442566e-05
-9.524720372e-05
-0.0001067905541
-0.0001029795458
-0.0001137351064
-0.0001099440706
-0.0001161422842
-0.000118889744
-0.0001215230077
-0.0001192103882
-0.0001218840989
-0.0001233387884
-0.0001218117104
-0.0001230222988
-0.0001222498395
-0.0001217667523
-0.0001212834104
-9.10286617e-05
-8.653638361e-05
-9.911009693e-05
-9.50634203e-05
-0.0001063266754
-0.0001025672536
-0.0001129292359
-0.0001092543534
-0.0001146683135
-0.0001172562188
-0.0001196226367
-0.0001173801138
-0.0001197720121
-0.0001212513162
-0.0001188639581
-0.0001207736786
-0.0001202171843
-0.0001194386132
-0.0001190518815
-9.072507964e-05
-8.606479241e-05
-9.863832383e-05
-9.448950004e-05
-0.0001057004265
-0.0001018217226
-0.0001115912019
-0.0001080994407
-0.0001128750155
-0.0001154329657
-0.0001175916914
-0.0001154614147
-0.0001174370482
-0.0001183523491
-0.0001155252685
-0.0001187793532
-0.0001173687997
-0.0001171675394
-0.0001170599862
-8.999291458e-05
-9.775965009e-05
-9.341741679e-05
-0.0001044370802
-0.0001004623409
-0.0001098473804
-0.0001063468953
-0.0001106890995
-0.0001133762707
-0.000115280156
-0.0001132191101
-0.0001150792014
-0.0001150503376
-0.0001134219783
-0.0001135050697
-0.0001159649983
-0.0001141129469
-0.0001151216275
-0.0001142230394
-8.869774319e-05
-9.620992932e-05
-9.16407007e-05
-0.0001025596794
-9.839527775e-05
-0.0001075925829
-0.0001040062198
-0.000108111286
-0.0001109473815
-0.0001128312797
-0.0001107888311
-0.0001129391967
-0.0001131548197
-0.0001128691219
-0.0001099814181
-0.0001101277885
-0.0001127363066
-0.0001123257389
-0.0001118569926
-0.000112196547
-0.0001109725272
-9.395029338e-05
-8.924878057e-05
-0.0001000397824
-9.573641728e-05
-0.0001049072744
-0.000101250218
-0.0001053914748
-0.0001083467869
-0.0001106397976
-0.0001085926924
-0.0001099001747
-0.00010971757
-0.0001093286555
-0.0001080589573
-0.0001081422524
-0.0001082782837
-0.0001082322196
-0.0001104134863
-0.0001110571029
-0.0001088294302
-0.0001082276067
-0.0001088765857
-0.0001093836327
-0.0001085842378
-9.117285663e-05
-8.644613263e-05
-9.715158376e-05
-9.275774937e-05
-0.0001021183562
-9.841019346e-05
-0.0001029845807
-0.000106031177
-0.0001077005218
-0.0001055146422
-0.0001065990291
-0.0001078802306
-0.0001077648922
-0.0001073254316
-0.0001074809115
-0.0001062340089
-0.0001063280797
-0.0001065153192
-0.0001064195021
-0.0001067227931
-0.0001075333857
-0.0001069980717
-0.0001067742633
-0.000106088788
-0.0001063996897
-0.0001064164389
-0.0001073503227
-0.0001058234629
-0.0001048315098
-8.816737682e-05
-8.347096446e-05
-9.429953207e-05
-8.989873459e-05
-9.962944023e-05
-9.589837282e-05
-9.968303493e-05
-0.0001028162442
-0.0001042237491
-0.0001017392278
-0.0001039254712
-0.0001049961138
-0.0001060888462
-0.0001059213537
-0.0001054721506
-0.0001056876208
-0.0001044934979
-0.0001046296384
-0.0001048493796
-0.0001047557962
-0.0001045419194
-0.000104886145
-0.0001056683323
-0.000105367275
-0.0001051644867
-0.0001048980339
-0.000104142222
-0.0001045002646
-0.000102600432
-0.0001037549664
-0.0001039967756
-0.0001035934474
-0.0001029551495
-0.0001025734382
-8.529121988e-05
-8.058868116e-05
-9.17964062e-05
-8.739526675e-05
-9.624534869e-05
-9.241944645e-05
-9.551483527e-05
-9.876100376e-05
-0.0001012984212
-0.0001024912272
-9.835032688e-05
-9.962988406e-05
-0.0001000542252
-0.0001013673536
-0.0001042846197
-0.0001041261421
-0.0001036203466
-0.0001038240953
-0.0001031570646
-0.0001033248118
-0.0001035999012
-0.0001034827146
-0.0001025875317
-0.0001029511259
-0.0001037174079
-0.0001034040033
-0.0001032750515
-0.0001030003987
-0.0001022561846
-0.0001026156897
-0.0001002398712
-0.0001007328683
-0.0001018634357
-0.0001014842201
-0.0001020556811
-0.0001015737289
-0.000101000478
-0.0001004991936
-8.277472807e-05
-7.802702021e-05
-8.83143075e-05
-8.389332652e-05
-9.194738232e-05
-8.799653006e-05
-9.177459287e-05
-9.323316044e-05
-9.653114103e-05
-9.518013394e-05
-9.716306522e-05
-9.865448374e-05
-9.40019745e-05
-9.561186016e-05
-9.763944399e-05
-9.817315004e-05
-9.945702914e-05
-9.901179146e-05
-0.0001029445848
-0.0001027243416
-0.0001021879361
-0.0001024583034
-0.0001018928742
-0.0001020845812
-0.0001023974182
-0.0001022558572
-0.00010057287
-0.0001009826665
-0.0001018251714
-0.0001014661902
-0.0001018729017
-0.0001015510497