/*--------------------------------*- C++ -*----------------------------------*\
  =========                 |
  \\      /  F ield         | OpenFOAM: The Open Source CFD Toolbox
   \\    /   O peration     | Website:  https://openfoam.org
    \\  /    A nd           | Version:  8
     \\/     M anipulation  |
\*---------------------------------------------------------------------------*/






FoamFile
{
    version     2.0;
    format      ascii;
    class       volSymmTensorField;
    location    "0";
    object      TauDDES;
}
// * * * * * * * * * * * * * * * * * * * * * * * * * * * * * * * * * * * * * //

dimensions      [0 2 -2 0 0 0 0];


internalField   nonuniform List<symmTensor>
14418
(
( 5.729124268e-07 2.816040734e-09 1.029767382e-10 9.653625122e-11 5.575375231e-12 3.722835515e-07 )
( 5.485575798e-07 2.578476099e-09 -1.546057393e-09 8.978633809e-11 1.406123135e-11 3.561699202e-07 )
( 1.773533654e-06 1.689346796e-08 9.665730438e-09 1.126598703e-09 -1.280426182e-10 1.072340979e-06 )
( 1.746173552e-06 1.536358418e-08 8.212763802e-09 9.940447354e-10 -1.07190895e-10 1.063838681e-06 )
( 6.092843137e-07 2.577570157e-09 1.659627102e-09 8.81340903e-11 -6.004309897e-12 3.945643527e-07 )
( 4.674823685e-06 7.669128621e-08 3.173861884e-08 9.825785519e-09 -4.698229999e-11 2.892431667e-06 )
( 4.714094302e-06 7.636451471e-08 3.378025326e-08 9.380363153e-09 -9.332800505e-11 2.893056035e-06 )
( 2.105800604e-06 2.035273106e-08 1.733061517e-08 1.381669112e-09 -1.995110049e-10 1.255214897e-06 )
( 1.306027571e-06 1.163778052e-08 8.700435927e-09 7.900397558e-10 -1.323515603e-10 7.815830827e-07 )
( 7.979176189e-06 2.295314516e-07 1.213845113e-08 1.491287804e-07 6.307346645e-09 5.508914001e-06 )
( 8.089572475e-06 2.302894728e-07 1.950803785e-08 1.421757645e-07 5.759316135e-09 5.558436897e-06 )
( 4.611304121e-06 7.4290881e-08 3.844855812e-08 9.50050083e-09 -1.469041278e-10 2.835199211e-06 )
( 2.320119847e-06 2.124484411e-08 1.90855296e-08 1.450212284e-09 -2.33516928e-10 1.376767386e-06 )
( 5.486571126e-07 2.183257353e-09 2.106554486e-09 7.515453537e-11 -3.030485585e-11 3.526182581e-07 )
( 1.020621585e-05 4.405153504e-07 -1.206894922e-07 5.053636869e-07 2.273562494e-08 7.942113371e-06 )
( 1.02623917e-05 4.503052651e-07 -1.038550579e-07 5.118361628e-07 2.326837567e-08 8.054720638e-06 )
( 8.113436706e-06 2.255999476e-07 6.062573021e-08 1.016770952e-07 4.42910153e-09 5.595241873e-06 )
( 5.034749847e-06 7.784465339e-08 4.40675656e-08 9.961509839e-09 -3.605999943e-10 3.061161351e-06 )
( 2.132119789e-06 1.923815596e-08 1.756873402e-08 1.336127875e-09 -2.479844941e-10 1.257725216e-06 )
( 4.468330985e-07 1.727798793e-09 4.425643185e-10 6.111969958e-11 -2.591113088e-11 2.854229422e-07 )
( 1.07902506e-05 4.816677688e-07 -2.131924788e-07 8.314952993e-07 3.089329326e-08 8.671628166e-06 )
( 1.078386776e-05 4.868267638e-07 -1.968196273e-07 8.545713399e-07 3.234513102e-08 8.697225894e-06 )
( 1.018044986e-05 4.359010575e-07 -2.553453093e-08 4.80998267e-07 2.253074527e-08 8.066091141e-06 )
( 7.913906302e-06 2.202639848e-07 5.821762628e-08 1.044111428e-07 4.311794921e-09 5.491029697e-06 )
( 4.70187706e-06 7.126144652e-08 4.240833107e-08 9.54989865e-09 -4.450635416e-10 2.866717978e-06 )
( 1.763998512e-06 1.407002426e-08 1.479898781e-08 9.407197243e-10 -1.97593289e-10 1.048923878e-06 )
( 4.473793922e-07 1.732845645e-09 3.887770661e-10 6.11661416e-11 -2.127324532e-11 2.845420681e-07 )
( 1.103514114e-05 3.164562656e-07 -3.398413924e-07 1.573839427e-06 3.380263536e-08 8.819467439e-06 )
( 1.102427905e-05 3.240255637e-07 -3.213829416e-07 1.573364216e-06 3.58170773e-08 8.843420801e-06 )
( 1.069839709e-05 4.703774152e-07 -1.07290731e-07 8.762760899e-07 3.446391972e-08 8.740435078e-06 )
( 1.014051668e-05 4.256195041e-07 5.00548758e-09 4.510261817e-07 2.132517096e-08 8.071869161e-06 )
( 8.19793695e-06 2.206244289e-07 6.12411597e-08 1.058533812e-07 3.898358081e-09 5.645792498e-06 )
( 4.908925348e-06 7.295977866e-08 4.469440285e-08 9.74965797e-09 -5.545240378e-10 2.967885621e-06 )
( 1.768016432e-06 1.408237615e-08 1.448601328e-08 9.446000648e-10 -2.088151457e-10 1.046473017e-06 )
( 4.481480289e-07 1.738276967e-09 3.327756404e-10 6.120257773e-11 -1.747246445e-11 2.836886779e-07 )
( 1.120881643e-05 3.844317575e-08 -4.427968179e-07 2.334356168e-06 2.809563782e-08 8.846653145e-06 )
( 1.095817606e-05 3.207746886e-07 -2.258689307e-07 1.554901246e-06 4.459346314e-08 8.923562746e-06 )
( 1.130257442e-05 -1.049499474e-07 -4.013841703e-07 2.593729278e-06 3.424577244e-08 8.904542483e-06 )
( 1.06855332e-05 4.604682999e-07 -9.333447792e-08 9.225771009e-07 3.596585429e-08 8.780959433e-06 )
( 1.014684312e-05 4.217447156e-07 1.465104482e-09 4.578387802e-07 2.09780584e-08 8.092276403e-06 )
( 8.229413652e-06 2.184708308e-07 6.176985323e-08 1.065217674e-07 3.646139835e-09 5.653655535e-06 )
( 4.9301334e-06 7.270936919e-08 4.455139546e-08 9.786787381e-09 -6.378129136e-10 2.965972726e-06 )
( 1.773693953e-06 1.411327499e-08 1.426357787e-08 9.483789309e-10 -2.123439896e-10 1.044031592e-06 )
( 4.493602432e-07 1.741140565e-09 2.742757688e-10 6.125889379e-11 -1.43021402e-11 2.828879815e-07 )
( 1.14658169e-05 -3.603063874e-07 -4.327091006e-07 3.118190307e-06 2.804033272e-08 8.8845145e-06 )
( 1.091189279e-05 3.115357572e-07 -2.033619495e-07 1.555231734e-06 4.568026668e-08 8.94225559e-06 )
( 1.120775414e-05 -2.603195526e-08 -3.020448389e-07 2.39540941e-06 5.039687423e-08 9.021879123e-06 )
( 1.157372844e-05 -5.081402605e-07 -3.930957462e-07 3.395005251e-06 3.554538353e-08 8.956216334e-06 )
( 1.067172616e-05 4.532680293e-07 -9.879416751e-08 9.337361462e-07 3.519426528e-08 8.795034773e-06 )
( 1.014928421e-05 4.180402868e-07 -8.058353984e-10 4.61650643e-07 2.066040672e-08 8.108478141e-06 )
( 8.264543794e-06 2.171260149e-07 6.211598702e-08 1.07117117e-07 3.437372831e-09 5.658912414e-06 )
( 4.947644811e-06 7.26714191e-08 4.428375888e-08 9.829084213e-09 -7.182022754e-10 2.962612598e-06 )
( 1.779079525e-06 1.413376527e-08 1.399501404e-08 9.513292376e-10 -2.175205016e-10 1.041527071e-06 )
( 5.110532584e-07 1.99724437e-09 -1.091272406e-09 7.075558195e-11 -7.373021464e-12 3.165316116e-07 )
( 1.188968236e-05 -8.8819354e-07 -3.666249881e-07 4.053854809e-06 3.029022366e-08 9.019892786e-06 )
( 1.088921636e-05 3.032498626e-07 -2.05892718e-07 1.56806982e-06 4.523432651e-08 8.950167285e-06 )
( 1.116262501e-05 -2.114642683e-08 -2.684333822e-07 2.37462632e-06 5.539769532e-08 9.06724199e-06 )
( 1.156773305e-05 -5.159864713e-07 -3.143138656e-07 3.393145789e-06 5.252438484e-08 9.088724255e-06 )
( 1.065273955e-05 4.477651316e-07 -1.025176317e-07 9.405599712e-07 3.484097988e-08 8.807308404e-06 )
( 1.015406542e-05 4.14436272e-07 -3.298005424e-09 4.643767397e-07 2.012962952e-08 8.122766303e-06 )
( 8.289753168e-06 2.160360708e-07 6.182394685e-08 1.076052811e-07 3.080497191e-09 5.66172821e-06 )
( 4.969807833e-06 7.26706233e-08 4.384889607e-08 9.866760742e-09 -8.025021758e-10 2.958652658e-06 )
( 1.785056156e-06 1.413879236e-08 1.368356717e-08 9.537822754e-10 -2.238692981e-10 1.03890352e-06 )
( 5.655790574e-07 2.221076656e-09 -2.332501303e-09 7.920005624e-11 -1.442622714e-12 3.460301059e-07 )
( 1.293174319e-05 -1.916104111e-06 -1.996229457e-07 5.655390396e-06 2.09318074e-08 9.495336599e-06 )
( 1.191294996e-05 -9.249374671e-07 -3.0329727e-07 4.116081527e-06 4.538200216e-08 9.143111129e-06 )
( 1.088025783e-05 2.977123472e-07 -2.072034135e-07 1.577546527e-06 4.450181379e-08 8.956623788e-06 )
( 1.115988107e-05 -2.592830128e-08 -2.66164335e-07 2.381384775e-06 5.392643843e-08 9.070054148e-06 )
( 1.151212382e-05 -4.455172018e-07 -2.924128069e-07 3.265371561e-06 5.735182285e-08 9.130442777e-06 )
( 1.065049219e-05 4.420735422e-07 -1.064736708e-07 9.453418102e-07 3.401372339e-08 8.817913113e-06 )
( 1.016818169e-05 4.106447591e-07 -6.060675517e-09 4.665888582e-07 1.937154082e-08 8.134817108e-06 )
( 8.325461749e-06 2.151142695e-07 6.117696216e-08 1.080353584e-07 2.675670796e-09 5.662855528e-06 )
( 4.990286925e-06 7.263430746e-08 4.305363177e-08 9.897708431e-09 -9.063578221e-10 2.954354386e-06 )
( 1.858230803e-06 1.439517838e-08 1.162739682e-08 9.646602406e-10 -2.375075137e-10 1.074845272e-06 )
( 5.134241405e-07 1.995810184e-09 -1.217407397e-09 7.117575973e-11 -3.619336601e-12 3.147515031e-07 )
( 1.417167732e-05 -2.894235195e-06 -3.484067079e-08 7.090301096e-06 -1.552124829e-08 1.006551975e-05 )
( 1.294333379e-05 -1.925929155e-06 -1.882517893e-07 5.671913186e-06 2.733045079e-08 9.53468134e-06 )
( 1.206008528e-05 -1.033082185e-06 -2.186888679e-07 4.286017884e-06 6.388169993e-08 9.325609426e-06 )
( 1.085807889e-05 2.905367182e-07 -2.083206283e-07 1.585470841e-06 4.365486461e-08 8.961650565e-06 )
( 1.115429041e-05 -3.183797759e-08 -2.626672995e-07 2.391813723e-06 5.310905138e-08 9.074227819e-06 )
( 1.157758561e-05 -4.889339493e-07 -2.580790408e-07 3.333340374e-06 6.242147776e-08 9.190690434e-06 )
( 1.063808668e-05 4.363113817e-07 -1.102142591e-07 9.493908237e-07 3.29254668e-08 8.827078091e-06 )
( 1.016911301e-05 4.068073451e-07 -8.792813588e-09 4.685888371e-07 1.851234188e-08 8.145446373e-06 )
( 8.353830708e-06 2.141931361e-07 6.008822595e-08 1.084098358e-07 2.228272455e-09 5.663000593e-06 )
( 5.010386303e-06 7.25470386e-08 4.177161017e-08 9.919351562e-09 -1.024023089e-09 2.949942655e-06 )
( 1.796113793e-06 1.409291972e-08 1.258586835e-08 9.564550263e-10 -2.529591259e-10 1.033687795e-06 )
( 5.146355306e-07 1.993022192e-09 -1.409158012e-09 7.216729991e-11 -5.867889508e-12 3.129285346e-07 )
( 1.57767081e-05 -3.978619134e-06 1.680388095e-07 8.570023056e-06 -7.285703418e-08 1.077842171e-05 )
( 1.417555541e-05 -2.90670414e-06 -3.180949193e-08 7.112811545e-06 -8.749704961e-09 1.010937467e-05 )
( 1.305715341e-05 -2.024124342e-06 -1.155023881e-07 5.828509529e-06 5.645932433e-08 9.785683687e-06 )
( 1.208720823e-05 -1.065581614e-06 -1.843221753e-07 4.355759756e-06 6.527444896e-08 9.379541552e-06 )
( 1.161060209e-05 -4.917004048e-07 -2.523118496e-07 3.340988087e-06 6.160045984e-08 9.192955076e-06 )
( 1.086836619e-05 2.851130034e-07 -2.096581397e-07 1.591504201e-06 4.249665508e-08 8.96527672e-06 )
( 1.115312807e-05 -3.681585525e-08 -2.593482975e-07 2.398518745e-06 5.204822884e-08 9.076111382e-06 )
( 1.064236312e-05 4.305477432e-07 -1.131715166e-07 9.532247418e-07 3.191224351e-08 8.835986591e-06 )
( 1.018319017e-05 4.028664193e-07 -1.190201182e-08 4.701942089e-07 1.749786094e-08 8.154795978e-06 )
( 8.387599337e-06 2.132470485e-07 5.83375801e-08 1.087169181e-07 1.744015488e-09 5.66238441e-06 )
( 5.028971827e-06 7.243683342e-08 4.019161892e-08 9.935390288e-09 -1.142176909e-09 2.944468406e-06 )
( 1.801014037e-06 1.407371197e-08 1.192349508e-08 9.583698279e-10 -2.642266961e-10 1.030527301e-06 )
( 5.695791288e-07 2.210032823e-09 -2.783930864e-09 7.993761902e-11 -6.079421688e-12 3.414453431e-07 )
( 1.750088086e-05 -5.058687748e-06 3.491199436e-07 9.947942999e-06 -1.158364853e-07 1.158478517e-05 )
( 1.570434142e-05 -3.945708158e-06 1.469294233e-07 8.540641829e-06 -5.722890251e-08 1.081299797e-05 )
( 1.424600123e-05 -2.980686531e-06 -6.241211992e-09 7.236018973e-06 2.20073737e-08 1.035497189e-05 )
( 1.305397745e-05 -2.032742714e-06 -9.47855554e-08 5.872178008e-06 5.42569687e-08 9.846226931e-06 )
( 1.203018837e-05 -1.064629146e-06 -1.725624088e-07 4.380382506e-06 6.031017108e-08 9.387666069e-06 )
( 1.160164629e-05 -4.960306796e-07 -2.442661753e-07 3.354219189e-06 6.05097128e-08 9.196851352e-06 )
( 1.159055773e-05 -4.981419579e-07 -2.384282993e-07 3.362194775e-06 5.979347151e-08 9.198859516e-06 )
( 1.08333179e-05 2.78438705e-07 -2.100792926e-07 1.597538017e-06 4.15878354e-08 8.968825568e-06 )
( 1.113476537e-05 -4.248573404e-08 -2.554519369e-07 2.408300588e-06 5.113715318e-08 9.07966205e-06 )
( 1.062105366e-05 4.249322956e-07 -1.162208818e-07 9.564607808e-07 3.08157766e-08 8.844198419e-06 )
( 1.019354659e-05 3.989463266e-07 -1.502031566e-08 4.715495834e-07 1.645000935e-08 8.163406164e-06 )
( 8.414975127e-06 2.122117735e-07 5.630393218e-08 1.089695303e-07 1.277976391e-09 5.660410352e-06 )
( 5.049164884e-06 7.225784771e-08 3.869120491e-08 9.956247382e-09 -1.217023371e-09 2.938381158e-06 )
( 1.875926273e-06 1.434722474e-08 9.793119204e-09 9.716639715e-10 -2.619840178e-10 1.064533649e-06 )
( 5.168549251e-07 1.984678866e-09 -1.654751558e-09 7.183054151e-11 -8.407842131e-12 3.104554196e-07 )
( 1.884755693e-05 -5.887594853e-06 3.763866516e-07 1.091412287e-05 -1.598595816e-07 1.227382745e-05 )
( 1.763658292e-05 -5.148582659e-06 3.004428493e-07 1.005935155e-05 -9.668240608e-08 1.176041314e-05 )
( 1.574361886e-05 -4.006329618e-06 1.50503908e-07 8.650396921e-06 -3.1616743e-08 1.101351154e-05 )
( 1.422963851e-05 -2.98744726e-06 7.721103756e-09 7.282656497e-06 1.847460673e-08 1.042365056e-05 )
( 1.298427924e-05 -2.026006769e-06 -8.482557234e-08 5.898485142e-06 4.455161928e-08 9.864085769e-06 )
( 1.199258531e-05 -1.061759917e-06 -1.631450459e-07 4.403374533e-06 5.36874758e-08 9.393304026e-06 )
( 1.154063466e-05 -5.009944744e-07 -2.313617813e-07 3.37524375e-06 5.828230343e-08 9.201446119e-06 )
( 1.153358608e-05 -5.016975706e-07 -2.267830439e-07 3.383114517e-06 5.709853212e-08 9.201923604e-06 )
( 1.083164898e-05 2.733166866e-07 -2.107484391e-07 1.602394377e-06 4.051611313e-08 8.972115211e-06 )
( 1.112464633e-05 -4.623890604e-08 -2.520913824e-07 2.41414682e-06 5.024826777e-08 9.080083146e-06 )
( 1.063509171e-05 4.19125314e-07 -1.19268762e-07 9.592248489e-07 2.967163049e-08 8.851780876e-06 )
( 1.02003969e-05 3.948772189e-07 -1.829021912e-08 4.726053646e-07 1.547705963e-08 8.171255104e-06 )
( 8.447414984e-06 2.110453607e-07 5.386378632e-08 1.09094664e-07 9.146695623e-10 5.657312613e-06 )
( 5.072237855e-06 7.223721354e-08 3.683432226e-08 9.956568015e-09 -1.315129006e-09 2.930791652e-06 )
( 1.813153631e-06 1.404096484e-08 1.063277555e-08 9.618225105e-10 -2.74223283e-10 1.0232867e-06 )
( 5.178416131e-07 1.978541553e-09 -1.841552022e-09 7.193908663e-11 -1.203857153e-11 3.083268609e-07 )
( 2.108975968e-05 -7.303288839e-06 2.560442454e-07 1.245211297e-05 -2.45567179e-07 1.359914859e-05 )
( 1.929908649e-05 -6.167203537e-06 3.293195618e-07 1.124281152e-05 -1.506855369e-07 1.259452802e-05 )
( 1.754052937e-05 -5.126509222e-06 2.868210913e-07 1.006222374e-05 -8.091858916e-08 1.182370215e-05 )
( 1.573977352e-05 -4.011552392e-06 1.611602585e-07 8.697567864e-06 -2.937650478e-08 1.108275046e-05 )
( 1.418146257e-05 -2.975388043e-06 1.948120776e-08 7.307083251e-06 8.931353435e-09 1.044571582e-05 )
( 1.294907725e-05 -2.016568033e-06 -7.510659117e-08 5.922465334e-06 3.47644189e-08 9.878365745e-06 )
( 1.196192807e-05 -1.057866257e-06 -1.546907527e-07 4.424281997e-06 4.588725844e-08 9.39714846e-06 )
( 1.152374352e-05 -5.034527248e-07 -2.213257062e-07 3.395230351e-06 5.473124531e-08 9.202974979e-06 )
( 1.149513264e-05 -5.042231237e-07 -2.174163853e-07 3.40235465e-06 5.302655381e-08 9.202814908e-06 )
( 1.109917775e-05 -5.077391663e-08 -2.487941515e-07 2.423332262e-06 4.921237107e-08 9.082130418e-06 )
( 1.084200358e-05 2.668114689e-07 -2.110334236e-07 1.60717957e-06 3.958501082e-08 8.975101991e-06 )
( 1.062761658e-05 4.135202119e-07 -1.220589496e-07 9.615101817e-07 2.851444414e-08 8.859078662e-06 )
( 1.021520256e-05 3.908161261e-07 -2.128504306e-08 4.734203287e-07 1.45126533e-08 8.178539247e-06 )
( 8.482883459e-06 2.102407279e-07 5.117662383e-08 1.092672335e-07 3.877588528e-10 5.651868833e-06 )
( 5.09184747e-06 7.211272646e-08 3.485871147e-08 9.957751068e-09 -1.404571015e-09 2.922863359e-06 )
( 1.817280577e-06 1.40132288e-08 9.833403425e-09 9.621624608e-10 -2.861485771e-10 1.019172942e-06 )
( 5.72437898e-07 2.19325913e-09 -3.34943917e-09 8.013584935e-11 -1.452795176e-11 3.358105971e-07 )
( 2.361616134e-05 -8.868853001e-06 4.876388715e-08 1.410816003e-05 -3.016259029e-07 1.526284541e-05 )
( 2.139405842e-05 -7.491911219e-06 2.306302065e-07 1.267311018e-05 -2.413761422e-07 1.378704837e-05 )
( 1.947560122e-05 -6.319080967e-06 2.949279292e-07 1.143301233e-05 -1.410352013e-07 1.276085823e-05 )
( 1.751641321e-05 -5.117026376e-06 2.920433531e-07 1.008432628e-05 -7.554558579e-08 1.18440812e-05 )
( 1.571124994e-05 -3.996718533e-06 1.763425814e-07 8.718271602e-06 -3.029245477e-08 1.11023337e-05 )
( 1.415000952e-05 -2.960541906e-06 3.299391338e-08 7.328248557e-06 2.613199435e-09 1.046197303e-05 )
( 1.290941964e-05 -2.005068154e-06 -6.463018565e-08 5.943881661e-06 2.590583215e-08 9.888892237e-06 )
( 1.194817378e-05 -1.051633831e-06 -1.471612023e-07 4.443502348e-06 3.722493602e-08 9.398187103e-06 )
( 1.147724106e-05 -5.058192301e-07 -2.129125249e-07 3.413264949e-06 4.987801105e-08 9.203113223e-06 )
( 1.152922141e-05 -5.058180363e-07 -2.104648615e-07 3.420000667e-06 4.74118913e-08 9.201841749e-06 )
( 1.112487007e-05 -5.431337158e-08 -2.457551602e-07 2.428310381e-06 4.814282306e-08 9.082067663e-06 )
( 1.10992778e-05 -5.873534548e-08 -2.424718843e-07 2.436607929e-06 4.680754628e-08 9.083642908e-06 )
( 1.083980169e-05 2.617680934e-07 -2.109897963e-07 1.610971708e-06 3.852650821e-08 8.978230653e-06 )
( 1.062992214e-05 4.076007372e-07 -1.244690964e-07 9.633957916e-07 2.747091976e-08 8.866322787e-06 )
( 1.02349004e-05 3.871248282e-07 -2.446386915e-08 4.74076586e-07 1.344178457e-08 8.183779755e-06 )
( 8.518338291e-06 2.093089932e-07 4.803047204e-08 1.093190889e-07 -3.775096902e-11 5.645626516e-06 )
( 5.11042299e-06 7.197995444e-08 3.259607695e-08 9.95395677e-09 -1.481457623e-09 2.914148354e-06 )
( 1.890018325e-06 1.426382745e-08 7.29659444e-09 9.716695226e-10 -2.925942544e-10 1.051268214e-06 )
( 5.192314916e-07 1.967468188e-09 -2.229850748e-09 7.170571775e-11 -1.864131592e-11 3.05230742e-07 )
( 2.641981337e-05 -1.060917202e-05 -1.064131823e-07 1.612011147e-05 -2.97227075e-07 1.720394357e-05 )
( 2.360160215e-05 -8.886388059e-06 3.818331606e-08 1.414967755e-05 -2.789224141e-07 1.52499415e-05 )
( 2.151687841e-05 -7.593670489e-06 1.7122548e-07 1.281081859e-05 -2.009101792e-07 1.390093985e-05 )
( 1.944869291e-05 -6.316061899e-06 2.763342764e-07 1.145704846e-05 -1.242633232e-07 1.276845705e-05 )
( 1.749003968e-05 -5.106797744e-06 2.942607296e-07 1.010211054e-05 -6.519043438e-08 1.185508972e-05 )
( 1.568887637e-05 -3.981036571e-06 1.908655349e-07 8.734423318e-06 -2.671007948e-08 1.111314668e-05 )
( 1.412969868e-05 -2.944443168e-06 4.796537212e-08 7.345892755e-06 -2.696514123e-10 1.047195838e-05 )
( 1.289386273e-05 -1.991698582e-06 -5.33857758e-08 5.962274372e-06 1.867148924e-08 9.895003132e-06 )
( 1.192988202e-05 -1.044779651e-06 -1.387622603e-07 4.460183391e-06 2.889589368e-08 9.398327165e-06 )
( 1.152865298e-05 -5.058360557e-07 -2.071621594e-07 3.43023089e-06 4.328345682e-08 9.200325621e-06 )
( 1.149879336e-05 -5.057947874e-07 -2.047792975e-07 3.436385668e-06 4.036683521e-08 9.198737644e-06 )
( 1.109414461e-05 -6.239267236e-08 -2.397016488e-07 2.440710432e-06 4.538235387e-08 9.083129044e-06 )
( 1.11471536e-05 -6.654079243e-08 -2.371355095e-07 2.448262876e-06 4.361883299e-08 9.084350495e-06 )
( 1.08276945e-05 2.552903027e-07 -2.107402395e-07 1.614762141e-06 3.752321476e-08 8.981029168e-06 )
( 1.063513628e-05 4.020308211e-07 -1.269706331e-07 9.647226307e-07 2.61855071e-08 8.872284525e-06 )
( 1.024494395e-05 3.833014262e-07 -2.775940366e-08 4.743205864e-07 1.228660285e-08 8.188218089e-06 )
( 8.547548532e-06 2.083411061e-07 4.477891835e-08 1.093286812e-07 -4.295394873e-10 5.638454695e-06 )
( 5.127647455e-06 7.185462891e-08 3.018415384e-08 9.94501459e-09 -1.550423234e-09 2.904321946e-06 )
( 1.826818448e-06 1.395479021e-08 8.128254514e-09 9.598531969e-10 -3.01744546e-10 1.009880293e-06 )
( 4.587436706e-07 1.709865805e-09 -9.730980466e-10 6.202609953e-11 -2.267980422e-11 2.704425413e-07 )
( 2.881213732e-05 -1.223318122e-05 -2.213502768e-07 1.830599467e-05 -2.733588076e-07 1.909017374e-05 )
( 2.614388177e-05 -1.046899979e-05 -9.066781814e-08 1.595080175e-05 -2.523993885e-07 1.690547288e-05 )
( 2.372470772e-05 -8.991518371e-06 5.236413969e-09 1.433886882e-05 -2.170873756e-07 1.531812813e-05 )
( 2.152872548e-05 -7.621117675e-06 1.276183923e-07 1.288869589e-05 -1.622107249e-07 1.392435843e-05 )
( 1.93890919e-05 -6.314137863e-06 2.558211634e-07 1.148476804e-05 -1.027416658e-07 1.276979856e-05 )
( 1.746372982e-05 -5.097201665e-06 2.931674317e-07 1.011740278e-05 -5.21580148e-08 1.185594101e-05 )
( 1.568816151e-05 -3.966263648e-06 2.031359116e-07 8.746959793e-06 -2.013122824e-08 1.111519668e-05 )
( 1.412059464e-05 -2.928145932e-06 6.323052304e-08 7.359343726e-06 -2.6199376e-10 1.04748442e-05 )
( 1.286569659e-05 -1.977034344e-06 -4.217501015e-08 5.977176897e-06 1.329205013e-08 9.896379197e-06 )
( 1.191628326e-05 -1.036206413e-06 -1.305605224e-07 4.474140042e-06 2.08395754e-08 9.395866073e-06 )
( 1.149718264e-05 -5.061771162e-07 -2.013293852e-07 3.44491491e-06 3.60432999e-08 9.197223335e-06 )
( 1.151609467e-05 -5.061852448e-07 -1.984017501e-07 3.450338681e-06 3.300024431e-08 9.196112842e-06 )
( 1.115285522e-05 -6.963804111e-08 -2.349450767e-07 2.451856744e-06 4.15702317e-08 9.082908036e-06 )
( 1.111393431e-05 -7.38059498e-08 -2.328890503e-07 2.458457629e-06 3.926817271e-08 9.083128134e-06 )
( 1.085753502e-05 2.503056749e-07 -2.103481194e-07 1.617671046e-06 3.635081214e-08 8.983922271e-06 )
( 1.063995023e-05 3.959787307e-07 -1.294483667e-07 9.655566373e-07 2.495214524e-08 8.877876098e-06 )
( 1.026388691e-05 3.79566842e-07 -3.061958154e-08 4.745030822e-07 1.139864825e-08 8.192541827e-06 )
( 8.57609848e-06 2.074156384e-07 4.11980281e-08 1.092832278e-07 -7.459398654e-10 5.629758562e-06 )
( 5.146084277e-06 7.173546379e-08 2.775756514e-08 9.931524048e-09 -1.599764321e-09 2.893853662e-06 )
( 1.829304665e-06 1.392320303e-08 7.330123619e-09 9.569853798e-10 -3.037838314e-10 1.004621708e-06 )
( 4.59185344e-07 1.696386143e-09 -1.024646035e-09 6.166004513e-11 -2.706786358e-11 2.688546203e-07 )
( 2.98791856e-05 -1.306114427e-05 -2.224004163e-07 1.960886584e-05 -2.972246307e-07 2.02654137e-05 )
( 2.841445894e-05 -1.19703227e-05 -1.706915782e-07 1.795683602e-05 -2.370544223e-07 1.860002521e-05 )
( 2.606175985e-05 -1.047475507e-05 -9.586197791e-08 1.611314474e-05 -1.970090864e-07 1.682829134e-05 )
( 2.370628317e-05 -9.014944226e-06 -1.206145228e-08 1.446562146e-05 -1.633744802e-07 1.528469693e-05 )
( 2.145129474e-05 -7.623776128e-06 1.006428931e-07 1.294730373e-05 -1.260270182e-07 1.390122634e-05 )
( 1.938708556e-05 -6.312115147e-06 2.354082085e-07 1.151471042e-05 -8.032799315e-08 1.275980594e-05 )
( 1.74775596e-05 -5.088757916e-06 2.883201375e-07 1.013227848e-05 -3.823639005e-08 1.184705616e-05 )
( 1.567467916e-05 -3.953195574e-06 2.126444372e-07 8.756413081e-06 -1.207789335e-08 1.110811536e-05 )
( 1.411614994e-05 -2.912176114e-06 7.729877183e-08 7.368802926e-06 1.837376362e-09 1.04704377e-05 )
( 1.283394067e-05 -1.961748694e-06 -3.160477036e-08 5.988525118e-06 9.546425872e-09 9.892679373e-06 )
( 1.192206309e-05 -1.026334076e-06 -1.226280517e-07 4.485494628e-06 1.33586795e-08 9.390823834e-06 )
( 1.152407276e-05 -5.05650064e-07 -1.945806076e-07 3.457839057e-06 2.854181069e-08 9.194102859e-06 )
( 1.152929417e-05 -5.047781428e-07 -1.92268871e-07 3.461962478e-06 2.49792933e-08 9.191582649e-06 )
( 1.112527025e-05 -7.721511963e-08 -2.316676557e-07 2.460673159e-06 3.671078019e-08 9.080727068e-06 )
( 1.115931536e-05 -8.111214811e-08 -2.297548747e-07 2.466760861e-06 3.406634619e-08 9.080778909e-06 )
( 1.08620643e-05 2.436999296e-07 -2.100197918e-07 1.62050128e-06 3.511573965e-08 8.98613871e-06 )
( 1.08576869e-05 2.387392897e-07 -2.092075704e-07 1.622781269e-06 3.382945479e-08 8.988647096e-06 )
( 1.064744083e-05 3.903432457e-07 -1.313784708e-07 9.661788454e-07 2.386207676e-08 8.883400369e-06 )
( 1.028624411e-05 3.759392087e-07 -3.344047173e-08 4.744916282e-07 1.059631138e-08 8.195788723e-06 )
( 8.617543244e-06 2.065299043e-07 3.750365352e-08 1.091982682e-07 -1.016778661e-09 5.619872354e-06 )
( 5.165441507e-06 7.161713e-08 2.524488174e-08 9.911601317e-09 -1.632761037e-09 2.882355375e-06 )
( 1.83393945e-06 1.38808085e-08 6.568163791e-09 9.534983914e-10 -3.082933353e-10 9.993917729e-07 )
( 4.595015639e-07 1.690439788e-09 -1.390759286e-09 6.134086988e-11 -2.803753063e-11 2.671575885e-07 )
( 2.972534821e-05 -1.29501077e-05 -1.744114684e-07 1.951133709e-05 -2.901550715e-07 2.003826012e-05 )
( 3.120927431e-05 -1.43068537e-05 2.048279057e-08 2.196861533e-05 -4.028677267e-07 2.233443774e-05 )
( 2.821011003e-05 -1.187338057e-05 -1.059633661e-07 1.809223613e-05 -2.223598585e-07 1.838795288e-05 )
( 2.59490389e-05 -1.044060264e-05 -8.800191154e-08 1.625052391e-05 -1.603444559e-07 1.672038707e-05 )
( 2.361120642e-05 -9.007902008e-06 -1.781743109e-08 1.456313566e-05 -1.211010385e-07 1.520669957e-05 )
( 2.142452649e-05 -7.624869795e-06 8.128549212e-08 1.300729673e-05 -9.219937169e-08 1.386291569e-05 )
( 1.937774323e-05 -6.311223842e-06 2.163218227e-07 1.154763959e-05 -5.829251748e-08 1.273903763e-05 )
( 1.746715679e-05 -5.082213193e-06 2.808287434e-07 1.014744521e-05 -2.419484701e-08 1.182890719e-05 )
( 1.569667438e-05 -3.941093382e-06 2.181200358e-07 8.763854566e-06 -3.472508947e-09 1.109234017e-05 )
( 1.409265496e-05 -2.897145805e-06 8.906408766e-08 7.375043424e-06 5.105979639e-09 1.045867612e-05 )
( 1.28375932e-05 -1.946448492e-06 -2.264847687e-08 5.996668278e-06 7.054458351e-09 9.883305211e-06 )
( 1.192741365e-05 -1.015560883e-06 -1.153735809e-07 4.494127552e-06 6.916788031e-09 9.383393262e-06 )
( 1.152650111e-05 -5.033351727e-07 -1.881723222e-07 3.468364639e-06 2.05190851e-08 9.189061529e-06 )
( 1.150898061e-05 -5.020646086e-07 -1.846352689e-07 3.47240416e-06 1.734061428e-08 9.187809155e-06 )
( 1.119164153e-05 -8.441723764e-08 -2.280748248e-07 2.468730372e-06 3.139784965e-08 9.078951734e-06 )
( 1.120424349e-05 -8.772032345e-08 -2.259644276e-07 2.474371286e-06 2.863171211e-08 9.078828953e-06 )
( 1.086254906e-05 2.324141235e-07 -2.08936342e-07 1.624948936e-06 3.243833646e-08 8.990235074e-06 )
( 1.08893064e-05 2.275344997e-07 -2.08648089e-07 1.62635331e-06 3.076928223e-08 8.992074072e-06 )
( 1.066986897e-05 3.84684256e-07 -1.326843488e-07 9.668414123e-07 2.295236001e-08 8.888856428e-06 )
( 1.03148468e-05 3.724395299e-07 -3.635121004e-08 4.743678232e-07 9.958565528e-09 8.197497664e-06 )
( 8.645186426e-06 2.05739326e-07 3.38528956e-08 1.091102675e-07 -1.140412875e-09 5.608010724e-06 )
( 5.18058232e-06 7.147661307e-08 2.345714911e-08 9.882684893e-09 -1.614436584e-09 2.870431217e-06 )
( 1.836903834e-06 1.38250833e-08 5.890179011e-09 9.468135165e-10 -2.983382985e-10 9.940806649e-07 )
( 4.593591711e-07 1.67148162e-09 -1.432945651e-09 6.087708809e-11 -3.130948278e-11 2.654929858e-07 )
( 2.974368181e-05 -1.30255039e-05 -5.571856931e-08 2.010372191e-05 -3.070836669e-07 2.007084913e-05 )
( 3.116359585e-05 -1.428357973e-05 3.394113435e-08 2.204074735e-05 -4.034083076e-07 2.22906001e-05 )
( 3.194496458e-05 -1.535734373e-05 2.52766938e-07 2.455973481e-05 -5.319278671e-07 2.437420699e-05 )
( 2.80406457e-05 -1.178052753e-05 -8.698314247e-08 1.823925049e-05 -2.184692534e-07 1.827307824e-05 )
( 2.586546361e-05 -1.039783729e-05 -7.011738745e-08 1.63733348e-05 -1.347191159e-07 1.659841655e-05 )
( 2.356704317e-05 -8.995748431e-06 -1.359332469e-08 1.46527409e-05 -8.642986415e-08 1.511212668e-05 )
( 2.136902185e-05 -7.624707905e-06 7.020911852e-08 1.306661397e-05 -6.187197954e-08 1.381128368e-05 )
( 1.935832552e-05 -6.311829566e-06 1.997084382e-07 1.158173654e-05 -3.697222439e-08 1.270845951e-05 )
( 1.748196883e-05 -5.076524758e-06 2.709220723e-07 1.016295755e-05 -1.025686824e-08 1.180229992e-05 )
( 1.570514905e-05 -3.930283128e-06 2.198017199e-07 8.769950909e-06 5.131925107e-09 1.106819491e-05 )
( 1.408149637e-05 -2.883262368e-06 9.794273126e-08 7.378860118e-06 8.756476433e-09 1.043951124e-05 )
( 1.283682104e-05 -1.931525276e-06 -1.582838394e-08 6.001584097e-06 5.424734884e-09 9.867873814e-06 )
( 1.194501601e-05 -1.00427917e-06 -1.100553249e-07 4.499067927e-06 1.440378039e-09 9.372545719e-06 )
( 1.151096603e-05 -4.998803433e-07 -1.804684473e-07 3.477486871e-06 1.324841392e-08 9.184861483e-06 )
( 1.152842833e-05 -4.978451216e-07 -1.76988749e-07 3.480466148e-06 1.02869695e-08 9.183393558e-06 )
( 1.118671025e-05 -9.078449636e-08 -2.235530587e-07 2.476087047e-06 2.647874986e-08 9.076826245e-06 )
( 1.117823103e-05 -9.323997574e-08 -2.212425727e-07 2.481334377e-06 2.340575378e-08 9.077278264e-06 )
( 1.091407648e-05 2.212094046e-07 -2.089123541e-07 1.627752226e-06 2.906223884e-08 8.993181837e-06 )
( 1.094075014e-05 2.162832402e-07 -2.086009658e-07 1.628780637e-06 2.77750285e-08 8.994224117e-06 )
( 1.06878515e-05 3.79318351e-07 -1.338571565e-07 9.672152146e-07 2.20720402e-08 8.89380135e-06 )
( 1.032914133e-05 3.690303743e-07 -3.93408861e-08 4.741270345e-07 9.576114124e-09 8.197777788e-06 )
( 8.67869494e-06 2.04867689e-07 3.021909123e-08 1.089301023e-07 -1.11535059e-09 5.59549153e-06 )
( 5.195950507e-06 7.138475411e-08 2.055082504e-08 9.846110594e-09 -1.559545937e-09 2.857568688e-06 )
( 1.838175876e-06 1.377373771e-08 5.114274781e-09 9.411468271e-10 -2.890564732e-10 9.882995755e-07 )
( 4.595300993e-07 1.669308025e-09 -1.726571996e-09 6.062731567e-11 -2.848564093e-11 2.634720317e-07 )
( 2.95919599e-05 -1.293546484e-05 -1.101935254e-08 2.035130638e-05 -3.206347969e-07 2.000685708e-05 )
( 3.080547685e-05 -1.409717152e-05 9.545674118e-08 2.244296047e-05 -4.029104446e-07 2.200746894e-05 )
( 3.183510853e-05 -1.528581561e-05 2.476570558e-07 2.459059033e-05 -5.242487191e-07 2.427440268e-05 )
( 3.1945925e-05 -1.59431147e-05 3.379087161e-07 2.711658817e-05 -6.021130048e-07 2.58327691e-05 )
( 2.791468796e-05 -1.168325798e-05 -6.604935265e-08 1.835114563e-05 -2.153752376e-07 1.814867392e-05 )
( 2.578342537e-05 -1.034897014e-05 -4.734456382e-08 1.647333738e-05 -1.14503905e-07 1.64661069e-05 )
( 2.349507849e-05 -8.977187463e-06 -1.429937946e-09 1.473019347e-05 -5.797429381e-08 1.500649523e-05 )
( 2.132565714e-05 -7.62305126e-06 6.645524309e-08 1.312159384e-05 -3.492613132e-08 1.374831754e-05 )
( 1.935638647e-05 -6.312365258e-06 1.859396832e-07 1.161423734e-05 -1.669718763e-08 1.26688974e-05 )
( 1.747494025e-05 -5.072298791e-06 2.597447235e-07 1.017748491e-05 3.397541359e-09 1.176796104e-05 )