/*--------------------------------*- C++ -*----------------------------------*\
  =========                 |
  \\      /  F ield         | OpenFOAM: The Open Source CFD Toolbox
   \\    /   O peration     | Website:  https://openfoam.org
    \\  /    A nd           | Version:  8
     \\/     M anipulation  |
\*---------------------------------------------------------------------------*/






FoamFile
{
    version     2.0;
    format      ascii;
    class       volScalarField;
    location    "0";
    object      V;
}
// * * * * * * * * * * * * * * * * * * * * * * * * * * * * * * * * * * * * * //

dimensions      [0 3 0 0 0 0 0];


internalField   nonuniform List<scalar> 
23940
(
0.001051659011
0.001047387301
0.001016917694
0.001043496299
0.001012990345
0.0009785433294
0.001040254855
0.001005380347
0.0009748137849
0.0009366107478
0.00100520843
0.001037051858
0.0009735839177
0.0009316706202
0.0003422481154
0.0003415460884
0.0009446115454
0.001004102211
0.001031096356
0.0009268174533
0.0003395307308
0.0003385028368
0.0003200729145
0.0003189433918
0.0009665123495
0.0009913097712
0.001000642046
0.001021953212
0.000334970228
0.0003347490558
0.0003174663449
0.0003151953822
0.0001121411862
0.0001119484563
0.0001115372488
0.000111792735
0.0003240958408
0.0003215542448
0.0003144933908
0.0003312593625
0.0003508173804
0.000959404034
0.0009871523568
0.001007142513
0.0003122923557
0.0003069950107
0.0001112643827
0.0001109164328
0.0001099920769
0.0001104752753
0.0001013366434
0.0001012125594
0.0001008585027
0.0001010520957
0.000326641914
0.0003327774205
0.000301040339
0.0002984603085
0.0003531777891
0.0003523604911
0.0009465055271
0.0009777398676
0.0009999464429
0.0001092610602
0.0001085413142
0.0001065121156
0.0001075610144
0.0001006135779
0.0001003110022
9.946196628e-05
9.993648679e-05
3.344341563e-05
3.339580351e-05
3.335501525e-05
3.340948409e-05
3.324095272e-05
3.331304643e-05
3.336700909e-05
3.330443313e-05
0.0003102590945
0.0003278064681
0.0003347361353
0.0001055016971
0.0001043765234
0.0001028058742
0.0001034678465
0.0003312958886
0.0003470331462
0.000345043788
0.0009339830687
0.0009395874111
0.0009952909646
9.888383361e-05
9.816975713e-05
9.631340213e-05
9.731746505e-05
3.324487455e-05
3.316151285e-05
3.306186671e-05
3.315851919e-05
3.277880877e-05
3.291148985e-05
3.304922408e-05
3.293625544e-05
2.876437232e-05
2.87345132e-05
2.874728597e-05
2.864869129e-05
2.867062076e-05
2.87134885e-05
2.869675625e-05
9.894636342e-05
9.578013611e-05
0.0001019773307
0.0001080304737
0.0003163806817
0.0001132470204
9.516123887e-05
9.393694539e-05
9.166501476e-05
9.28643328e-05
0.0003281639444
0.0003106240127
0.0003156403012
0.0003418015236
0.0003397992994
0.0009629461898
0.0009779861219
0.0009591947919
3.273893858e-05
3.258304684e-05
3.234167785e-05
3.252489116e-05
3.167216499e-05
3.193180115e-05
3.226015845e-05
3.204404612e-05
2.861614894e-05
2.858756046e-05
2.850977914e-05
2.854693465e-05
2.828462889e-05
2.834676684e-05
2.845889785e-05
2.841071378e-05
2.466400953e-05
2.464115166e-05
2.465352952e-05
2.457465349e-05
2.459483295e-05
2.46277849e-05
2.461203602e-05
8.992067601e-05
9.984809488e-05
8.864784518e-05
0.0001041319964
0.0001130159767
0.0001120832347
3.15215494e-05
3.120595423e-05
3.065985868e-05
3.10219716e-05
3.039298917e-05
3.035356491e-05
3.048750533e-05
3.01993911e-05
0.0003054312075
0.0001080654752
0.0001100402564
0.0003293555543
0.0003143376906
0.0003127803506
0.0003230162019
0.0003009491169
0.0003219309975
0.0003180969565
0.0009879522651
0.00034163408
0.000991580176
2.820466354e-05
2.81255842e-05
2.792582291e-05
2.802608064e-05
2.735020415e-05
2.751712743e-05
2.780176777e-05
2.767417727e-05
2.455249982e-05
2.452669551e-05
2.446532532e-05
2.449825699e-05
2.428587844e-05
2.434014936e-05
2.442894004e-05
2.438697989e-05
2.18461607e-05
2.182836834e-05
2.183776419e-05
2.177614766e-05
2.179185484e-05
2.181770428e-05
2.180566513e-05
3.060834808e-05
3.027260404e-05
9.976373493e-05
9.05242056e-05
2.903329334e-05
2.993720729e-05
0.0001039770539
0.0001021005806
2.714390211e-05
2.69209729e-05
2.637552415e-05
2.665373849e-05
2.674548079e-05
2.583881543e-05
2.607664244e-05
2.585436716e-05
0.0001069924269
0.0001061369102
9.821804976e-05
0.0001000810452
0.0001062515543
0.0001114680976
0.0001018621675
9.752586372e-05
0.000101992202
0.0003021038161
0.0001086568437
0.0001109629609
0.0003327278807
0.0003075392102
0.0003118465466
0.0003279979132
0.000326318219
0.0003335696565
0.0003130174011
0.0003468337515
2.422510637e-05
2.415527392e-05
2.398863901e-05
2.407736557e-05
2.350442418e-05
2.365106916e-05
2.388993291e-05
2.377749558e-05
2.175824296e-05
2.173801272e-05
2.168903413e-05
2.171501946e-05
2.154583157e-05
2.158913843e-05
2.165957663e-05
2.162647838e-05
2.1218326e-05
2.12036885e-05
2.12115072e-05
2.116097738e-05
2.117412869e-05
2.119513065e-05
2.118542151e-05
2.732666499e-05
2.740084625e-05
9.559999525e-05
3.265587387e-05
3.13257942e-05
2.745279303e-05
2.584412466e-05
2.832308298e-05
2.506279272e-05
2.659198467e-05
9.30605859e-05
2.333146891e-05
2.312001648e-05
2.256085911e-05
2.286519704e-05
2.146607179e-05
2.151773634e-05
2.221350529e-05
2.183882822e-05
9.414446613e-05
9.813381234e-05
8.796899619e-05
9.054078041e-05
0.0001028715739
0.0001002034714
9.053989866e-05
9.289549695e-05
0.0001071965201
0.0001052059456
9.992941229e-05
0.0001020442907
0.0003168734957
0.0001031778995
0.0001070056405
9.887395746e-05
9.250808531e-05
0.0001010896425
0.0003228857939
0.0003436037234
0.0003179869681
0.0003225344559
0.0003367383251
2.149524129e-05
2.143681088e-05
2.129544145e-05
2.137004876e-05
2.087932793e-05
2.100561687e-05
2.121125283e-05
2.111549692e-05
2.114604647e-05
2.112943328e-05
2.108882672e-05
2.111043414e-05
2.097145642e-05
2.100466081e-05
2.106433173e-05
2.10362428e-05
1.7153066e-05
1.714300536e-05
1.714848797e-05
1.711440034e-05
1.712357096e-05
1.71374351e-05
1.71311632e-05
2.609547584e-05
2.642078975e-05
3.251809393e-05
3.208169648e-05
2.862687132e-05
2.381173715e-05
2.713266712e-05
2.294889251e-05
2.192699248e-05
2.313398896e-05
3.077158353e-05
3.152207244e-05
2.07309325e-05
2.053630177e-05
1.992572781e-05
2.027319562e-05
1.69388366e-05
1.812964089e-05
1.947897306e-05
1.891191011e-05
8.936332787e-05
3.154780729e-05
3.0235392e-05
2.884436793e-05
2.92856392e-05
3.021660911e-05
2.963495271e-05
9.887950084e-05
9.197052787e-05
2.985765706e-05
3.046572696e-05
3.143062918e-05
3.07329807e-05
9.513646203e-05
9.823805659e-05
9.057680159e-05
9.370470271e-05
0.0001051261465
0.0001015671843
9.961842546e-05
0.0001043004543
9.856429692e-05
0.000102384948
9.252822558e-05
9.172707056e-05
0.0001096366992
0.0003254841246
0.0001077734086
0.0001116056673
0.0003267495118
0.0001017050537
0.0001061164533
0.000103965402
2.092851333e-05
2.08749209e-05
2.075250216e-05
2.081737614e-05
2.035461742e-05
2.048500932e-05
2.06782119e-05
2.05908635e-05
1.710399342e-05
1.709296121e-05
1.706537101e-05
1.708003445e-05
1.698613993e-05
1.700843847e-05
1.704902274e-05
1.703007387e-05
1.386592483e-05
1.385905525e-05
1.386288375e-05
1.384011914e-05
1.384648232e-05
1.385549741e-05
1.385153142e-05
1.302460077e-05
2.035385907e-05
2.849248831e-05
2.815748436e-05
2.501855913e-05
2.098725756e-05
2.20959369e-05
2.009537707e-05
1.996911153e-05
2.031806116e-05
2.682598623e-05
2.757927902e-05
2.019697393e-05
2.002079174e-05
1.926562269e-05
1.972794244e-05
1.444479356e-05
1.661108517e-05
1.866534755e-05
1.784050145e-05
2.738560151e-05
2.575239905e-05
2.795604213e-05
2.799523157e-05
2.528234026e-05
2.553345369e-05
2.597231042e-05
2.531187626e-05
3.240177171e-05
3.147800154e-05
2.85646092e-05
2.681047465e-05
2.883197388e-05
2.625058317e-05
2.633081251e-05
2.757652111e-05
2.697146236e-05
9.20615027e-05
3.174162647e-05
3.064488573e-05
3.000190646e-05
3.082189862e-05
3.202140034e-05
3.136671102e-05
0.0001011024844
0.000101299037
9.587543119e-05
9.299327601e-05
9.138226881e-05
3.090440371e-05
3.171281181e-05
2.777442678e-05
2.873307484e-05
2.900410597e-05
3.15305096e-05
3.055092793e-05
0.0001069149438
0.0001036968359
0.0001032663298
0.0001085338377
0.0001034384135
0.0001109239611
0.0001035203258
9.900810291e-05
9.632943415e-05
1.695667755e-05
1.691939885e-05
1.683504721e-05
1.687982136e-05
1.656633978e-05
1.665412843e-05
1.678456309e-05
1.672559807e-05
1.383290285e-05
1.382567624e-05
1.380710006e-05
1.38169586e-05
1.375411448e-05
1.376895266e-05
1.379632508e-05
1.378367102e-05
1.120822603e-05
1.120358337e-05
1.12062387e-05
1.119126939e-05
1.119565045e-05
1.120137749e-05
1.119895183e-05
1.28391628e-05
1.037234958e-05
1.608356089e-05
2.518402827e-05
2.515953576e-05
2.132548953e-05
1.948474337e-05
1.914063813e-05
1.878002064e-05
1.61138691e-05
1.622378427e-05
2.348802677e-05
2.464708044e-05
1.646014014e-05
1.633992825e-05
1.578859376e-05
1.613116691e-05
1.21593569e-05
1.375358343e-05
1.533117027e-05
1.469357656e-05
2.444341693e-05
2.685987634e-05
2.321517625e-05
2.522994151e-05
2.413282747e-05
2.041882558e-05
2.201002012e-05
2.102373051e-05
2.879970298e-05
2.552671943e-05
2.800927723e-05
2.466646434e-05
2.125399551e-05
2.26167216e-05
2.475356248e-05
2.394487619e-05
2.849611754e-05
2.749494242e-05
2.861697344e-05
2.82974496e-05
2.654413884e-05
2.736343349e-05
2.815351688e-05
2.743898589e-05
9.404101323e-05
9.754929187e-05
3.073700749e-05
2.998801577e-05
9.078362361e-05
3.064965742e-05
3.175170453e-05
2.832798673e-05
2.883082342e-05
2.411564644e-05
2.572759172e-05
2.82504574e-05
2.732145719e-05
0.0001039246785
0.0001027571723
0.0001002837012
9.808177057e-05
9.966045115e-05
9.692406126e-05
3.221432686e-05
3.138136091e-05
9.526908446e-05
1.373410369e-05
1.370846231e-05
1.365096123e-05
1.368155943e-05
1.347128721e-05
1.352987736e-05
1.361703615e-05
1.357767001e-05
1.118630661e-05
1.118167125e-05
1.116933691e-05
1.117587053e-05
1.113440935e-05
1.11441447e-05
1.116237053e-05
1.115404904e-05
9.059610568e-06
9.056522092e-06
9.058343969e-06
9.048731263e-06
9.051711562e-06
9.055218765e-06
9.053815561e-06
1.080824037e-05
9.267162184e-06
1.27706164e-05
2.050259976e-05
2.430185586e-05
1.797153366e-05
1.584865656e-05
1.785443235e-05
1.535890836e-05
1.301170654e-05
1.298795066e-05
2.034891636e-05
2.3767493e-05
1.340023927e-05
1.33181857e-05
1.291814251e-05
1.31699901e-05
1.019110816e-05
1.136485382e-05
1.257192774e-05
1.208171438e-05
2.337780298e-05
2.165893893e-05
1.979599914e-05
2.074593214e-05
1.218568321e-05
1.621323409e-05
1.895455043e-05
1.77125779e-05
2.605458827e-05
2.457473106e-05
2.31451933e-05
2.326456456e-05
1.671695565e-05
1.88532212e-05
2.390172894e-05
2.268816368e-05
2.51459314e-05
2.865053655e-05
2.373010616e-05
2.566855928e-05
2.541825208e-05
2.261445044e-05
2.517502204e-05
2.403040887e-05
2.94006393e-05
2.807359158e-05
2.902577108e-05
3.136009576e-05
3.203678188e-05
2.756584842e-05
2.775295355e-05
2.962114282e-05
2.776216541e-05
2.703804399e-05
2.809759814e-05
2.564131444e-05
2.668066588e-05
1.887232704e-05
2.389101086e-05
2.379386849e-05
2.644164933e-05
9.930355791e-05
9.754880686e-05
3.255941349e-05
3.179484062e-05
9.685779408e-05
3.274287623e-05
3.21690737e-05
3.076691363e-05
2.92953771e-05
2.990938623e-05
2.926129565e-05
2.940841721e-05
3.034679419e-05
2.896596004e-05
1.112102187e-05
1.110366964e-05
1.10650895e-05
1.108569564e-05
1.09467488e-05
1.09853327e-05
1.104267244e-05
1.101682774e-05
9.045359618e-06
9.042482771e-06
9.03446354e-06
9.038701288e-06
9.011939708e-06
9.018190834e-06
9.030092196e-06
9.024747423e-06
7.322674673e-06
7.320668628e-06
7.321899041e-06
7.315952133e-06
7.317943275e-06
7.319962015e-06
7.319231686e-06
9.056469264e-06
8.13273649e-06
1.018201952e-05
1.645504394e-05
1.238772388e-05
1.65499886e-05
1.288513662e-05
1.465764065e-05
1.255164286e-05
1.051253735e-05
1.041974402e-05
1.88156167e-05
1.93025416e-05
1.089972493e-05
1.084375939e-05
1.055583447e-05
1.073922793e-05
8.512054974e-06
9.375875433e-06
1.029570893e-05
9.920892085e-06
1.835442091e-05
1.80921723e-05
1.748700188e-05
1.632442231e-05
1.008499913e-05
1.22374058e-05
1.421410671e-05
1.785129193e-05
1.648875811e-05
2.152726615e-05
1.233368006e-05
1.919078181e-05
1.780348113e-05
1.399644475e-05
1.638138615e-05
1.210921731e-05
1.775918189e-05
2.323410008e-05
2.651724751e-05
1.853912626e-05
2.417192729e-05
1.258682454e-05
1.764303624e-05
2.421004836e-05
2.215829067e-05
2.620321461e-05
2.889690128e-05
2.473558297e-05
2.889156833e-05
2.362005466e-05
2.775263505e-05
2.551269954e-05
2.828519341e-05
2.571634933e-05
2.350819785e-05
2.406104687e-05
1.336510337e-05
1.508331871e-05
1.797847482e-05
1.883727438e-05
1.327015611e-05
3.266649487e-05
3.218026527e-05
3.103022339e-05
2.94750095e-05
2.993136723e-05
2.959820443e-05
2.980994675e-05
3.095691075e-05
2.944347545e-05
2.966297897e-05
2.782717694e-05
2.996676186e-05
2.611780485e-05
2.588243906e-05
2.95578472e-05
2.746992457e-05
2.578130255e-05
9.003184028e-06
8.991716868e-06
8.966434885e-06
8.980013595e-06
8.89025856e-06
8.915156268e-06
8.951994927e-06
8.935455878e-06
7.313701978e-06
7.312011504e-06
7.306964629e-06
7.309622967e-06
7.29292906e-06
7.296809918e-06
7.304351896e-06
7.301044093e-06
5.918612445e-06
5.917356134e-06
5.91816895e-06
5.914712642e-06
5.916008561e-06
5.917039706e-06
5.916744523e-06
7.560875622e-06
7.04438483e-06
8.146621076e-06
1.430098856e-05
1.247146386e-05
1.02052747e-05
1.366301237e-05
1.047184789e-05
1.202706284e-05
1.025130143e-05
8.497196636e-06
8.374131357e-06
1.505650496e-05
1.528141894e-05
8.85963876e-06
8.821551996e-06
8.616516219e-06
8.748498945e-06
7.090082189e-06
7.724932786e-06
8.422673759e-06
8.137778812e-06
1.466009547e-05
1.609916051e-05
1.414215845e-05
1.38190034e-05
9.0042805e-06
1.035808443e-05
1.193392919e-05
1.446982672e-05
1.354405169e-05
1.682162809e-05
1.206419153e-05
9.902558704e-06
1.635943159e-05
1.421737409e-05
1.167313861e-05
1.329765255e-05
9.777302563e-06
1.190053822e-05
1.417998716e-05
1.756461275e-05
1.324788906e-05
1.491295849e-05
1.810518177e-05
1.228119492e-05
1.016611504e-05
1.448623834e-05
1.218386475e-05
1.70377211e-05
2.522687759e-05
2.537915522e-05
2.685125816e-05
2.14249264e-05
1.886902782e-05
2.466709473e-05
2.231274809e-05
1.419283208e-05
1.273371408e-05
1.850024527e-05
1.785653097e-05
1.257561409e-05
1.047570923e-05
1.237867746e-05
1.428741746e-05
1.276999532e-05
1.531628947e-05
1.064671607e-05
2.959647452e-05
3.075407832e-05
2.809393284e-05
3.005592331e-05
2.630890085e-05
2.617868867e-05
2.997000617e-05
2.808121105e-05
2.624379493e-05
2.617373864e-05
2.761425339e-05
2.806558921e-05
2.277290009e-05
2.305387793e-05
2.779014693e-05
2.714512416e-05
2.248911444e-05
7.287398433e-06
7.280087489e-06
7.264107533e-06
7.272765061e-06
7.216799115e-06
7.232367371e-06
7.255170927e-06
7.245005817e-06
5.913251568e-06
5.91235288e-06
5.909341311e-06
5.910919166e-06
5.901076785e-06
5.90335536e-06
5.907909682e-06
5.905985613e-06
4.783678357e-06
4.782937877e-06
4.783456445e-06
4.781674164e-06
4.782484139e-06
4.782870722e-06
4.782850148e-06
6.293917941e-06
6.042041251e-06
6.537379624e-06
1.200097145e-05
1.046522218e-05
9.058395882e-06
1.127420192e-05
8.507977566e-06
9.864486971e-06
8.368464749e-06
6.870715706e-06
6.739900792e-06
1.209532743e-05
1.216655941e-05
7.197352174e-06
7.171543241e-06
7.027579616e-06
7.121154906e-06
5.892609237e-06
6.35799571e-06
6.884494858e-06
6.669349298e-06
1.176090872e-05
1.321044039e-05
1.146500184e-05
1.160415212e-05
7.910104862e-06
8.729389138e-06
9.989864894e-06
1.175275481e-05
1.112791262e-05
1.392494037e-05
1.018614495e-05
8.809630666e-06
1.328708173e-05
1.140643709e-05
9.722222583e-06
1.082132232e-05
8.711636159e-06
1.004388503e-05
1.13774384e-05
1.398362707e-05
1.044845268e-05
1.264667653e-05
1.223780097e-05
1.436143773e-05
1.02686129e-05
8.907309377e-06
1.190766139e-05
1.182542733e-05
9.777339248e-06
1.361351416e-05
1.263179253e-05
2.244557117e-05
1.327849955e-05
1.513307793e-05
1.473915464e-05
1.808889396e-05
1.606391585e-05
1.102724115e-05
1.307728518e-05
1.208912651e-05
1.025360011e-05
1.490069828e-05
1.420480527e-05
1.052302071e-05
9.192153072e-06
1.015880136e-05
1.140777762e-05
1.065061116e-05
1.252068269e-05
9.296655296e-06
2.614722952e-05
2.79165346e-05
2.789497754e-05
2.818088221e-05
2.298902643e-05
2.328717991e-05
2.815689982e-05
2.783058655e-05
2.290753041e-05
2.322151865e-05
1.385421481e-05
1.39249386e-05
1.603087963e-05
1.606524382e-05
1.379124209e-05
1.35466307e-05
1.582427525e-05
5.897776449e-06
5.89337707e-06
5.883855749e-06
5.889091245e-06
5.856177492e-06
5.865424053e-06
5.878686535e-06
5.87285399e-06
4.7807651e-06
4.780386919e-06
4.778755666e-06
4.779602217e-06
4.774375714e-06
4.775581336e-06
4.778106444e-06
4.777112537e-06
3.866317177e-06
3.865928015e-06
3.866240728e-06
3.865565403e-06
3.866038193e-06
3.86601471e-06
3.86616113e-06
5.227079853e-06
5.143490977e-06
5.259029044e-06
1.004814997e-05
8.7639673e-06
7.932085411e-06
9.299376275e-06
6.910722148e-06
8.088021222e-06
6.828749909e-06
5.557206773e-06
5.431064649e-06
9.748802651e-06
9.734841993e-06
5.844305452e-06
5.826939331e-06
5.727767414e-06
5.792825897e-06
4.888654892e-06
5.228472975e-06
5.623333742e-06
5.462045442e-06
9.470840965e-06
1.084721852e-05
9.313696959e-06
9.721396044e-06
6.866110096e-06
7.331415779e-06
8.34257428e-06
9.562127239e-06
9.144610947e-06
1.160774677e-05
8.569243617e-06
7.721737959e-06
1.08169339e-05
9.188141743e-06
8.08835822e-06
8.824693906e-06
7.651129567e-06
8.452362082e-06
9.167668227e-06
1.11874669e-05
9.159813961e-06
1.055453293e-05
1.004717921e-05
1.144895433e-05
8.569300739e-06
7.717187255e-06
9.798393132e-06
9.944286665e-06
8.659839915e-06
1.093144614e-05
1.167345839e-05
1.001464418e-05
1.5515705e-05
1.017610252e-05
1.191684751e-05
1.225587516e-05
1.209172818e-05
1.431427158e-05
1.293896597e-05
9.509410027e-06
1.082826206e-05
1.013205152e-05
8.993956812e-06
1.222989303e-05
1.135191849e-05
8.776784796e-06
7.956691359e-06
8.33689137e-06
9.145554774e-06
8.860677651e-06
1.024345223e-05
8.019623256e-06
2.768443762e-05
2.323448095e-05
1.398260955e-05
1.40246131e-05
1.620748181e-05
1.616681763e-05
1.398245077e-05
1.393153685e-05
1.612670926e-05
1.606458305e-05
1.076064524e-05
1.249479786e-05
1.067919256e-05
1.24393813e-05
1.284214134e-05
1.287286841e-05
1.238755175e-05
1.059193646e-05
1.221972425e-05
1.047939018e-05
1.268947713e-05
4.772601122e-06
4.770218586e-06
4.765131898e-06
4.768011764e-06
4.7506622e-06
4.755664774e-06
4.762511869e-06
4.759590157e-06
3.865038486e-06
3.864995583e-06
3.864286358e-06
3.8646454e-06
3.862481385e-06
3.86297976e-06
3.864144821e-06
3.863766044e-06
3.124839126e-06
3.124685375e-06
3.124856001e-06
3.124894498e-06
3.125135998e-06
3.124862124e-06
3.125103499e-06
4.332971272e-06
4.353033773e-06
4.23940085e-06
8.397710593e-06
7.327222218e-06
6.875308864e-06
7.668006821e-06
5.612222386e-06
6.629650665e-06
5.57055254e-06
4.495888904e-06
4.380667664e-06
7.879635461e-06
7.822879311e-06
4.74388733e-06
4.732328877e-06
4.66581075e-06
4.709851527e-06
4.049899106e-06
4.296633483e-06
4.590633855e-06
4.47073816e-06
7.651404562e-06
8.911652526e-06
7.579060623e-06
8.12859894e-06
5.906030451e-06
6.14029418e-06
6.953504049e-06
7.790866594e-06
7.516021602e-06
9.665858776e-06
7.188044952e-06
6.693629763e-06
8.82335286e-06
7.426894813e-06
6.722958284e-06
7.209221097e-06
6.647658464e-06
7.096394577e-06
7.414284376e-06
8.988621964e-06
7.926830101e-06
8.785720511e-06
8.251855652e-06
9.166700122e-06
7.140024001e-06
6.629121518e-06
8.069869306e-06
8.344616083e-06
7.571664195e-06
8.815867928e-06
9.810592258e-06
8.784398618e-06
1.249730508e-05
8.815205258e-06
9.940166393e-06
9.95621819e-06
9.922538425e-06
1.138572174e-05
1.045499745e-05
8.119053509e-06
8.950807337e-06
8.46535933e-06
7.786980175e-06
1.003933958e-05
9.107920069e-06
7.301281142e-06
6.817501024e-06
6.841655533e-06
7.357389155e-06
7.356693802e-06
8.385902936e-06
6.854829441e-06
1.389628863e-05
1.607101494e-05
1.261573185e-05
1.084885582e-05
1.075670707e-05
1.25019121e-05
1.296354789e-05
1.293852358e-05
1.25107034e-05
1.074946255e-05
1.254138277e-05
1.078991178e-05
1.290520602e-05
1.286637846e-05
9.237425236e-06
1.034697873e-05
9.171762249e-06
1.030103548e-05
1.033212217e-05
1.035860313e-05
1.0266406e-05
9.099464679e-06
1.013908801e-05
9.028131361e-06
1.021950256e-05
3.861734273e-06
3.860726588e-06
3.858636217e-06
3.859917939e-06
3.852913575e-06
3.85510727e-06
3.857710995e-06
3.856710853e-06
3.124628747e-06
3.124793996e-06
3.124687494e-06
3.124728745e-06
3.124550131e-06
3.124592987e-06
3.124864992e-06
3.124882866e-06
3.586409297e-06
3.667138006e-06
3.423332494e-06
7.007910931e-06
6.117832935e-06
5.912805705e-06
6.321171609e-06
4.556981235e-06
5.433032866e-06
4.543004496e-06
3.637968998e-06
3.536244716e-06
6.383963278e-06
6.309908951e-06
3.849529057e-06
3.841962635e-06
3.799063602e-06
3.827750402e-06
3.351122576e-06
3.528879565e-06
3.745886795e-06
3.657647856e-06
6.198513478e-06
7.324796943e-06
6.176329475e-06
6.786242966e-06
5.044708383e-06
5.131237659e-06
5.786665673e-06
6.35519879e-06
6.178309116e-06
8.04183063e-06
6.015344967e-06
5.753593735e-06
7.209115822e-06
6.021005599e-06
5.583892311e-06
5.898244305e-06
5.728321854e-06
5.946651798e-06
6.015193628e-06
7.248469012e-06
6.793464757e-06
7.298134387e-06
6.779500473e-06
7.366668998e-06
5.941591087e-06
5.656835856e-06
6.651171519e-06
6.990161117e-06
6.555981227e-06
7.136465027e-06
8.220403875e-06
7.609579633e-06
1.010402189e-05
7.567037704e-06
8.278416966e-06
8.109257145e-06
8.144349145e-06
9.096668625e-06
8.470626042e-06
6.879414612e-06
7.388741904e-06
7.055183051e-06
6.676387641e-06
8.242205985e-06
7.332185357e-06
6.061139186e-06
5.796202668e-06
5.614548848e-06
5.936258284e-06
6.09806179e-06
6.868940675e-06
5.818064977e-06
1.248907874e-05
1.075960568e-05
1.286740615e-05
1.042377986e-05
9.295972134e-06
9.225768239e-06
1.035148608e-05
1.041483034e-05
1.040006868e-05
1.035245818e-05
9.220862924e-06
1.037186046e-05
9.254542049e-06
1.037291044e-05
1.034910038e-05
7.869527348e-06
8.563251002e-06
7.816365956e-06
8.524544302e-06
8.343697263e-06
8.365889037e-06
8.501954749e-06
7.758015962e-06
8.406914222e-06
7.715727084e-06
8.260948496e-06
3.124479357e-06
3.124386886e-06
3.124273878e-06
3.124495007e-06
3.124205726e-06
3.124580611e-06
3.124446125e-06
3.124680993e-06
2.964878465e-06
3.078044041e-06
2.768290799e-06
5.841010703e-06
5.102487141e-06
5.05404388e-06
5.209783622e-06
3.699677927e-06
4.451590583e-06
3.704223931e-06
2.944225774e-06
2.856450415e-06
5.182488787e-06
5.105824098e-06
3.123037456e-06
3.118208229e-06
3.092220182e-06
3.109813141e-06
2.770274283e-06
2.896983513e-06
3.055463443e-06
2.99130764e-06
5.033180507e-06
6.022782553e-06
5.039214129e-06
5.658411189e-06
4.285415361e-06
4.280277804e-06
4.809509473e-06
5.189166873e-06
5.079257783e-06
6.685896917e-06
5.024427206e-06
4.913260051e-06
5.898378844e-06
4.893497849e-06
4.634986041e-06
4.831673071e-06
4.904511899e-06
4.975497457e-06
4.893261834e-06
5.863536092e-06
5.778950992e-06
6.052269439e-06
5.571326279e-06
5.938816268e-06
4.939199664e-06
4.802092217e-06
5.48526089e-06
5.847299091e-06
5.63404238e-06
5.795696361e-06
6.871427695e-06
6.530067976e-06
8.195496352e-06
6.45013966e-06
6.885710439e-06
6.619615302e-06
6.686100417e-06
7.295549498e-06
6.878467086e-06
5.794780436e-06
6.092529619e-06
5.868099844e-06
5.681489163e-06
6.767501709e-06
5.919541125e-06
5.023172211e-06
4.898313074e-06
4.60751925e-06
4.801506061e-06
5.048111523e-06
5.6289297e-06
4.911053376e-06
1.033815819e-05
9.226685963e-06
1.034722758e-05
8.609588585e-06
7.906871645e-06
7.853062486e-06
8.56502817e-06
8.399227956e-06
8.391143981e-06
8.561520886e-06
7.85019489e-06
8.573960174e-06
7.878206738e-06
8.369374872e-06
8.355116885e-06
6.664540189e-06
7.083569651e-06
6.621328873e-06
7.050548414e-06
6.759484279e-06
6.777661793e-06
7.036347282e-06
6.575282923e-06
6.966721552e-06
6.553196882e-06
6.699093877e-06
2.448658567e-06
2.576036637e-06
4.863581188e-06
4.251861076e-06
4.299176916e-06
4.293051683e-06
3.003348854e-06
3.646905806e-06
3.019799776e-06
4.214130672e-06
4.142748046e-06
4.094922232e-06
4.953763814e-06
4.115516745e-06
4.713141128e-06
3.624618959e-06
3.565216565e-06
3.993214675e-06
4.240512206e-06
4.176104615e-06
5.555337749e-06
4.190285745e-06
4.174087152e-06
4.831551746e-06
3.985552002e-06
3.845408083e-06
3.962079907e-06
4.177950613e-06
4.15769455e-06
3.989688076e-06
4.755847656e-06
4.887548473e-06
5.012284209e-06
4.579460364e-06
4.800509193e-06
4.102459194e-06
4.059685426e-06
4.526049704e-06
4.885648316e-06
4.813367043e-06
4.719865115e-06
5.732662471e-06
5.563279276e-06
6.665833853e-06
5.467987797e-06
5.721372706e-06
5.413761269e-06
5.489838706e-06
5.870016039e-06
5.596222864e-06
4.858649316e-06
5.019206252e-06
4.872825837e-06
4.806785477e-06
5.557154002e-06
4.790571237e-06
4.157288057e-06
4.120001971e-06
3.781102443e-06
3.891747191e-06
4.174479136e-06
4.614491454e-06
4.127525386e-06
8.553763373e-06
7.854245546e-06
8.351887256e-06
7.109067522e-06
6.686889196e-06
6.64540831e-06
7.082884348e-06
6.795936698e-06
6.792123689e-06
7.077028285e-06
6.644189923e-06
7.085236241e-06
6.66746501e-06
6.774959038e-06
6.766694205e-06
5.617791041e-06
5.857229674e-06
5.582555885e-06
5.82881678e-06
5.490979407e-06
5.50556454e-06
5.820419855e-06
5.546952419e-06
5.770582664e-06
5.538671618e-06
5.447333686e-06
4.046419486e-06
3.540459262e-06
3.642978578e-06
3.537133552e-06
2.987322587e-06
3.431459294e-06
3.369065398e-06
3.337023693e-06
4.075554252e-06
3.363889897e-06
3.922465914e-06
3.055091143e-06
2.966082337e-06
3.31265589e-06
3.467606322e-06
3.433808012e-06
4.613740134e-06
3.490254526e-06
3.53162461e-06
3.961504945e-06
3.251846953e-06
3.189021127e-06
3.25180248e-06
3.544681869e-06
3.470734142e-06
3.259243128e-06
3.86608877e-06
4.114848682e-06
4.146451471e-06
3.764859709e-06
3.889103526e-06
3.405126593e-06
3.42072027e-06
3.736173502e-06
4.078299405e-06
4.093140039e-06
3.852792419e-06
4.775074832e-06
4.712938662e-06
5.434396817e-06
4.615306928e-06
4.749893225e-06
4.434574091e-06
4.508223448e-06
4.735961373e-06
4.560265307e-06
4.058879368e-06
4.131966902e-06
4.04102357e-06
4.048159563e-06
4.563627216e-06
3.884744935e-06
3.436868062e-06
3.452403423e-06
3.10291622e-06
3.159841032e-06
3.44905683e-06
3.784051786e-06
3.457085962e-06
7.074700798e-06
6.647805219e-06
6.763020456e-06
5.868660882e-06
5.629661663e-06
5.597519719e-06
5.854519769e-06
5.514055277e-06
5.512916703e-06
5.847650729e-06
5.597578939e-06
5.853330217e-06
5.616904891e-06
5.499603935e-06
5.495031348e-06
4.7179379e-06
4.841617958e-06
4.689122401e-06
4.817022766e-06
4.470809405e-06
4.482301193e-06
4.812607875e-06
4.662148644e-06
4.778007777e-06
4.663067045e-06
4.439707978e-06
3.364311511e-06
2.946330217e-06
3.077376443e-06
2.913983667e-06
2.797364064e-06
2.745186684e-06
2.723119143e-06
3.353757412e-06
2.751399804e-06
3.262172779e-06
2.567869841e-06
2.465243148e-06
2.746178053e-06
2.837145691e-06
2.823635936e-06
3.830233106e-06
2.904199615e-06
2.978254594e-06
3.25074498e-06
2.657172297e-06
2.643786043e-06
2.670775409e-06
2.997658653e-06
2.894834338e-06
2.666856361e-06
3.14873368e-06
3.451792114e-06
3.427125327e-06
3.095626947e-06
3.156653271e-06
2.824736891e-06
2.874650098e-06
3.085238619e-06
3.401728873e-06
3.467750671e-06
3.15127648e-06
3.972344858e-06
3.974822464e-06
4.439240357e-06
3.882127333e-06
3.940638293e-06
3.637307661e-06
3.702553829e-06
3.829778342e-06
3.721025516e-06
3.380882076e-06
3.399557265e-06
3.347629506e-06
3.396877721e-06
3.74796918e-06
3.15550802e-06
2.838750633e-06
2.884352548e-06
2.546376003e-06
2.56928555e-06
2.847689589e-06
3.103853874e-06
2.887574689e-06
5.849594708e-06
5.601376463e-06
5.491425846e-06
4.843747138e-06
4.722608122e-06
4.697577168e-06
4.837360554e-06
4.484552687e-06
4.485032831e-06
4.83029374e-06
4.698579418e-06
4.834484328e-06
4.714619865e-06
4.474899989e-06
4.472526151e-06
3.950497192e-06
4.001046346e-06
3.926873907e-06
3.979673522e-06
3.647257911e-06
3.656145519e-06
3.977951143e-06
3.906882041e-06
3.954937133e-06
3.913717057e-06
3.625532591e-06
2.795656215e-06
2.450711779e-06
2.593068282e-06
2.7602933e-06
2.711491178e-06
3.178758135e-06
2.414537391e-06
2.504957105e-06
2.669292344e-06
2.528412333e-06
2.412826595e-06
2.568545738e-06
2.887204943e-06
2.830535911e-06
2.545675237e-06
2.566170834e-06
2.342205717e-06
2.410545319e-06
2.548473297e-06
2.835593162e-06
2.929122639e-06
2.581832831e-06
3.301099775e-06
3.340445231e-06
3.632372612e-06
3.256351759e-06
3.26741281e-06
2.986691738e-06
3.041167785e-06
3.102934485e-06
3.039588722e-06
2.809568406e-06
2.795635155e-06
2.770802534e-06
2.842095699e-06
3.078268677e-06
2.566757871e-06
2.343017414e-06
2.40398442e-06
2.349829714e-06
2.546468881e-06
2.406534798e-06
4.835419991e-06
4.702776545e-06
4.469271147e-06
3.997204261e-06
3.950345083e-06
3.930766031e-06
3.995699551e-06
3.654537756e-06
3.655952325e-06
3.988898409e-06
3.932422814e-06
3.99222808e-06
3.945716738e-06
3.648382612e-06
3.647286842e-06
3.300012649e-06
3.305699051e-06
3.280608082e-06
3.287086469e-06
2.980264314e-06
2.987011513e-06
3.287142606e-06
3.266164715e-06
3.272824132e-06
3.276582885e-06
2.965524481e-06
2.637395209e-06
2.409337211e-06
2.336422267e-06
2.362449959e-06
2.46815769e-06
2.740935616e-06
2.799343772e-06
2.976319371e-06
2.725317487e-06
2.707944345e-06
2.454721544e-06
2.49813572e-06
2.518066371e-06
2.485225269e-06
2.330402349e-06
2.298106289e-06
2.291742375e-06
2.372356903e-06
2.528353349e-06
3.996271168e-06
3.937022996e-06
3.644490982e-06
3.298186185e-06
3.296736582e-06
3.281362456e-06
3.299654522e-06
2.983131828e-06
2.985034952e-06
3.293372187e-06
3.283435981e-06
3.296201285e-06
3.294467921e-06
2.979515613e-06
2.979107376e-06
2.75132295e-06
2.730706963e-06
2.735360106e-06
2.714495324e-06
2.438587168e-06
2.443585057e-06
2.715689052e-06
2.725253794e-06
2.707799804e-06
2.737627343e-06
2.429002949e-06
2.27423113e-06
2.340523475e-06
2.441620673e-06
2.276728528e-06
2.24342554e-06
3.302189681e-06
3.288341684e-06
2.976804329e-06
2.721137452e-06
2.746136227e-06
2.734013591e-06
2.724301849e-06
2.438489205e-06
2.44059197e-06
2.718657734e-06
2.736333639e-06
2.721180029e-06
2.745472651e-06
2.4366906e-06
2.436624864e-06
2.290277421e-06
2.255413451e-06
2.277124615e-06
2.241284025e-06
2.243171454e-06
2.270353812e-06
2.239945789e-06
2.283569575e-06
2.728296183e-06
2.741411359e-06
2.434779832e-06