/*--------------------------------*- C++ -*----------------------------------*\
  =========                 |
  \\      /  F ield         | OpenFOAM: The Open Source CFD Toolbox
   \\    /   O peration     | Website:  https://openfoam.org
    \\  /    A nd           | Version:  8
     \\/     M anipulation  |
\*---------------------------------------------------------------------------*/






FoamFile
{
    version     2.0;
    format      ascii;
    class       volScalarField;
    location    "0";
    object      pDDES;
}
// * * * * * * * * * * * * * * * * * * * * * * * * * * * * * * * * * * * * * //

dimensions      [0 2 -2 0 0 0 0];


internalField   nonuniform List<scalar> 
21771
(
0.0003413278318
0.0003436286061
0.000344431639
0.0003469804069
0.0003459233849
0.000348140049
0.0003510069801
0.0003497473954
0.0003482542525
0.0003526939254
0.0003539544996
0.0003562230559
0.0003528161033
0.0003498354054
0.0003550465335
0.0003565777733
0.0003569270775
0.0003597713949
0.0003588759282
0.0003609115083
0.0003548118984
0.0003518601588
0.000359056954
0.0003607688122
0.0003628084669
0.000359804777
0.0003632146982
0.0003646846453
0.0003626388498
0.000364613632
0.000357609184
0.0003531495167
0.0003606929677
0.0003614878515
0.0003632493899
0.000362395891
0.0003657898633
0.0003661580267
0.0003670867009
0.0003629403654
0.0003640601935
0.0003636445035
0.0003664687974
0.0003686209384
0.0003642315569
0.000365126034
0.0003670484293
0.0003661360824
0.0003598366748
0.0003534775169
0.000359785452
0.0003627657425
0.0003635240719
0.0003653362801
0.0003645118559
0.000368986075
0.000367513363
0.0003700841626
0.000371569593
0.000366496708
0.0003691915481
0.0003671009035
0.000367986795
0.0003691490856
0.000371398055
0.0003703060793
0.0003663606767
0.0003672036692
0.0003691247839
0.0003682870883
0.0003607415128
0.0003531041439
0.0003617659095
0.0003637343762
0.0003640715731
0.0003649619757
0.0003646294354
0.0003667826531
0.0003664449905
0.0003654972534
0.000365857326
0.0003736457438
0.0003720258537
0.0003705426061
0.000372297276
0.0003732538607
0.0003751051263
0.0003740621032
0.0003736761282
0.0003714592604
0.0003726595896
0.000368934212
0.0003702198446
0.0003710830351
0.000372949813
0.0003723961709
0.0003673186293
0.0003677082714
0.0003686834825
0.0003683195391
0.0003706186544
0.0003702490067
0.0003692633472
0.0003696336062
0.0003618219343
0.0003518971789
0.00036320457
0.0003628718259
0.0003648611309
0.0003652813029
0.0003661668452
0.0003657458001
0.0003679800138
0.0003675600747
0.0003666236589
0.0003670715378
0.0003767125891
0.0003775277874
0.000376031152
0.000373700721
0.0003748946765
0.0003748693271
0.0003742836998
0.0003749580646
0.0003776238009
0.0003760755935
0.0003787867608
0.0003759308602
0.0003773327044
0.000373905059
0.0003750195901
0.0003672573948
0.0003714160703
0.0003711970639
0.000371590344
0.0003726225405
0.000372237293
0.0003742993576
0.0003740291868
0.0003732263867
0.0003734539496
0.000368443667
0.0003689166042
0.0003698979272
0.0003694379411
0.0003718433436
0.0003713735496
0.0003703990078
0.0003708649019
0.0003613096196
0.0003675982298
0.0003508433583
0.0003644067328
0.0003639939532
0.0003658350033
0.0003661878291
0.0003670735168
0.0003667129786
0.0003689014702
0.0003685270203
0.0003676034103
0.0003679793444
0.0003790644114
0.0003792644711
0.0003803357249
0.000377809949
0.0003765032743
0.0003779511026
0.0003750050382
0.0003752717748
0.0003763014101
0.0003760312102
0.0003792862699
0.0003786238376
0.0003770647454
0.0003776758385
0.0003818462719
0.0003803750733
0.0003799908445
0.0003792452335
0.0003800803388
0.000379147823
0.0003773175413
0.0003809205082
0.0003729306045
0.0003723498085
0.0003728409356
0.0003738583764
0.0003733742051
0.0003759057436
0.0003752572811
0.000374386902
0.0003748731106
0.0003694368934
0.0003698426299
0.0003708034055
0.0003704111441
0.0003727660514
0.0003723608097
0.0003713825427
0.0003717774525
0.0003575962037
0.0003625446698
0.0003678736684
0.0003681936359
0.0003569133696
0.0003653180902
0.0003649689897
0.0003664664691
0.0003669071884
0.0003677915956
0.0003673397587
0.0003696139029
0.0003691457387
0.000368235138
0.0003686957352
0.000380337704
0.0003808452457
0.000380828511
0.0003803260333
0.0003810403869
0.0003816812241
0.0003812860814
0.0003812146024
0.000378896395
0.0003804910521
0.0003762702108
0.000376942975
0.0003779813997
0.0003772967029
0.0003809363407
0.0003800687846
0.0003783266293
0.0003791382187
0.0003845430329
0.0003829922643
0.0003826664179
0.0003838458215
0.0003810977214
0.0003820799466
0.000382926868
0.0003831795766
0.000378638535
0.0003804171283
0.0003806958557
0.0003821908031
0.000384746847
0.0003839906421
0.0003743628331
0.0003733532212
0.0003737651859
0.000374779338
0.0003743658599
0.0003768454189
0.000376419659
0.000375389267
0.0003758042003
0.0003700766247
0.0003705576237
0.0003715200583
0.000371030008
0.0003734889033
0.0003729842429
0.0003719987581
0.0003724977141
0.0003694308689
0.0003630403662
0.0003747595183
0.000355950935
0.0003660415241
0.0003656066838
0.0003669991274
0.0003674348409
0.0003683184914
0.0003678725916
0.0003701336391
0.0003696693457
0.0003687649732
0.0003692166647
0.0003815121017
0.0003819076519
0.0003820409765
0.0003827190376
0.0003819339036
0.0003821929276
0.000382281607
0.0003827674373
0.0003823206061
0.0003836512915
0.000377465738
0.0003778896935
0.0003789282637
0.0003785112058
0.0003817674005
0.000380879821
0.0003795559751
0.0003799957922
0.0003863585589
0.0003857875126
0.0003856316325
0.0003853482776
0.0003848349734
0.0003867608029
0.0003845056344
0.0003860411234
0.000386322703
0.0003778569808
0.0003800775739
0.0003826736938
0.0003818157129
0.0003832884249
0.0003862409794
0.0003886753984
0.0003874203248
0.0003781040432
0.000373980205
0.0003744901624
0.0003755085054
0.0003749891184
0.0003775884979
0.0003770521726
0.0003760138643
0.0003765400907
0.0003706009593
0.0003710767487
0.0003720353707
0.0003715520143
0.0003740075335
0.0003735092178
0.0003725222487
0.000373016519
0.0003694490879
0.0003734373313
0.0003732855257
0.000363399653
0.0003759385727
0.0003790997434
0.0003785032895
0.0003665727563
0.0003661447845
0.0003674095788
0.0003678429639
0.0003687258286
0.0003682835086
0.0003705362615
0.0003700732486
0.0003691714082
0.0003696179483
0.000382330094
0.0003827871988
0.0003835932876
0.0003841771977
0.0003843553422
0.0003833363298
0.0003832126677
0.0003834548115
0.000383794657
0.0003832392977
0.0003855084069
0.0003850361391
0.0003781056148
0.0003786355956
0.000379646779
0.0003791320778
0.0003824717423
0.0003812081413
0.0003801273415
0.0003806485911
0.0003876017872
0.0003870263463
0.0003867182531
0.0003875586553
0.0003860478464
0.0003865824547
0.0003880202421
0.0003885613696
0.000388166809
0.0003877214622
0.0003891540109
0.0003887985658
0.0003882724559
0.0003835089738
0.0003809789778
0.0003866230254
0.0003845660249
0.0003870982327
0.0003885369515
0.0003890989465
0.0003905466292
0.0003900081501
0.0003903478791
0.0003893325338
0.0003898060531
0.0003745077411
0.000375013391
0.0003760358086
0.0003755217767
0.0003781286359
0.0003775979276
0.0003765510628
0.0003770732437
0.0003710052697
0.0003714742488
0.000372434879
0.0003719512606
0.0003744091664
0.0003739100648
0.0003729245509
0.0003734161728
0.0003676298657
0.0003701019741
0.0003739703679
0.0003734995844
0.0003766099981
0.0003673326573
0.0003795456141
0.0003833998053
0.0003819056437
0.0003669810831
0.0003665583499
0.000367690518
0.0003681253002
0.000369005953
0.0003685646225
0.0003708157747
0.0003703507537
0.000369448273
0.0003698935616
0.0003828639165
0.0003833818191
0.0003848852357
0.0003855554387
0.0003848720226
0.000384118408
0.0003842747537
0.000384332292
0.0003844641615
0.0003839456476
0.0003867737832
0.0003862758167
0.0003786627203
0.0003791827185
0.0003801733255
0.0003796822275
0.0003819562262
0.0003828765184
0.0003815536038
0.0003806430905
0.0003810966737
0.0003882075835
0.0003883929458
0.0003875806578
0.0003889172222
0.0003873151727
0.0003878489952
0.0003890381777
0.0003895676346
0.0003895438858
0.0003899494768
0.0003895183909
0.0003893083485
0.0003896865237
0.0003908009385
0.0003902681055
0.0003906856291
0.0003904209298
0.0003874409886
0.0003849841014
0.000389023975
0.0003884577018
0.0003884411417
0.0003897267452
0.0003896366106
0.0003910122323
0.0003911969252
0.0003923292388
0.0003920980089
0.0003915854031
0.0003749135649
0.0003754205536
0.0003764464054
0.0003759306855
0.0003785545123
0.0003780212137
0.0003769670438
0.0003774919023
0.0003712801263
0.0003717483487
0.0003727102885
0.0003722249239
0.0003746871953
0.0003741846886
0.0003732000187
0.0003736904182
0.0003741297987
0.000370452588
0.0003783846914
0.0003772796481
0.0003808520851
0.0003838037665
0.0003858414129
0.0003857336415
0.0003859990975
0.000367262197
0.0003668396967
0.0003678674693
0.0003683021059
0.0003691817983
0.0003687420394
0.0003709910088
0.0003705279378
0.0003696220228
0.0003700685047
0.0003833300143
0.0003838970442
0.0003854710958
0.0003860459256
0.000385786494
0.0003851827059
0.0003850159701
0.0003849352943
0.0003849526402
0.0003844546154
0.0003873739624
0.000386638043
0.000379098492
0.0003796207602
0.0003806075838
0.000380119629
0.000382452854
0.0003831945942
0.0003819551494
0.0003810764174
0.0003815165837
0.0003891319502
0.0003890341031
0.0003884089529
0.0003895307891
0.0003881328157
0.0003887018829
0.0003904351615
0.0003905263729
0.0003909558582
0.000390673842
0.000390012865
0.0003909417719
0.0003912912216
0.0003923424811
0.0003917747817
0.0003918083967
0.000391256588
0.0003893164685
0.0003897668212
0.0003885951592
0.0003871455847
0.0003875202383
0.0003907295468
0.0003898318682
0.0003900504089
0.0003906087077
0.0003916801361
0.0003915560083
0.0003918354341
0.00039263707
0.0003932543914
0.0003928609076
0.0003924241755
0.0003751932527
0.0003756997176
0.0003767299931
0.0003762120905
0.0003788530303
0.0003783166758
0.0003772543278
0.0003777828533
0.0003714532359
0.0003719207598
0.0003728838055
0.0003723985865
0.0003748635645
0.000374358875
0.0003733721969
0.000373862742
0.0003788645554
0.00037504395
0.0003808487672
0.0003810771159
0.0003815861419
0.0003833454684
0.0003831307113
0.0003859692079
0.0003863115271
0.0003847189946
0.0003878399148
0.0003872951493
0.0003877406707
0.0003881973098
0.0003674392938
0.0003670164733
0.0003679694491
0.000368404435
0.0003692826431
0.0003688435827
0.0003710914752
0.0003706310235
0.0003697224311
0.0003701695241
0.0003836944816
0.0003842766455
0.0003861663863
0.0003866968036
0.0003864996543
0.0003861847799
0.0003857712727
0.0003853928938
0.0003854034003
0.0003853184462
0.0003848263295
0.0003878742573
0.0003872308589
0.0003794067306
0.0003799328115
0.0003809223126
0.0003804329317
0.0003827545443
0.0003834229719
0.0003822690051
0.0003813930962
0.0003818366094
0.0003898114082
0.000389929628
0.0003891912056
0.0003903897887
0.0003891076194
0.0003894188558
0.000391409063
0.0003915672423
0.0003919356968
0.0003913506516
0.0003907459322
0.0003916482383
0.0003922261822
0.0003934353299
0.0003929331433
0.000392927439
0.0003922793549
0.0003911968379
0.000390305242
0.0003917557769
0.0003892609966
0.0003922469041
0.0003914045519
0.0003918500734
0.0003925649798
0.0003927763901
0.0003925258352
0.0003931976098
0.0003938332084
0.0003942468902
0.0003938736918
0.000393599068
0.0003753687779
0.0003758765233
0.0003769102041
0.0003763895947
0.0003790476476
0.000378506782
0.0003774366342
0.000377968594
0.0003715515486
0.0003720197128
0.0003729829332
0.0003724979761
0.0003749647294
0.0003744587011
0.000373470597
0.0003739611129
0.0003808636975
0.000381037622
0.0003800837148
0.0003781476698
0.000374095951
0.0003778907412
0.0003756503575
0.0003831216309
0.0003828756162
0.0003834271629
0.0003838067641
0.0003851983056
0.0003880016739
0.0003866076586
0.0003884423641
0.0003894221736
0.000389007997
0.0003897575371
0.0003903381876
0.0003675411281
0.0003671183949
0.0003680209047
0.0003684555413
0.0003693327308
0.0003688942525
0.0003711420577
0.0003706817224
0.0003697716165
0.0003702205431
0.0003839472483
0.0003845330502
0.0003869342036
0.0003874390677
0.0003870990477
0.0003867134219
0.0003862945014
0.0003858391137
0.0003857716802
0.0003855690302
0.0003850776702
0.0003887626808
0.0003884006292
0.0003879150609
0.0003796100209
0.0003801398852
0.0003811311908
0.0003806403838
0.0003829548368
0.0003835745738
0.0003824841115
0.0003816054377
0.0003820543352
0.0003903159231
0.0003906580969
0.0003909637162
0.0003898390569
0.0003911852546
0.0003897322167
0.0003900444426
0.0003925040073
0.0003924356715
0.0003927020007
0.0003922759206
0.000391949754
0.0003915140987
0.0003926410573
0.0003930968815
0.000393936818
0.0003943018673
0.0003941428731
0.0003934234846
0.0003926342761
0.0003910376399
0.0003921418975
0.0003932028776
0.0003936199355
0.0003930857056
0.0003932113177
0.0003939532326
0.0003940073948
0.0003937464207
0.0003943570191
0.0003950656683
0.0003951175313
0.0003949925012
0.0003948526282
0.0003948720405
0.0003754693898
0.0003759764368
0.0003770127369
0.0003764917783
0.0003791654599
0.0003786186862
0.0003775416699
0.0003780761617
0.0003716007632
0.0003720688983
0.0003730320313
0.0003725473362
0.0003750158066
0.0003745084687
0.0003735189384
0.0003740100074
0.0003830243659
0.0003816570388
0.0003831885115
0.0003801920393
0.0003776482772
0.0003846108157
0.0003846991749
0.0003855935647
0.0003861215373
0.0003871663357
0.0003896929848
0.0003886279883
0.0003900503507
0.0003910395026
0.0003906828351
0.000391388312
0.000391892856
0.0003675923799
0.0003671695595
0.0003680418886
0.0003684764379
0.0003693527251
0.0003689144505
0.0003711614991
0.000370702357
0.000369791931
0.0003702407121
0.0003841095604
0.0003846959735
0.0003875807743
0.000388074317
0.0003875513212
0.0003870796645
0.0003866473562
0.0003861732839
0.0003860275028
0.0003857272677
0.0003852360533
0.000389440509
0.0003889894579
0.000388537359
0.0003797367681
0.0003802673018
0.0003812587529
0.0003807675967
0.0003830862115
0.0003836690739
0.0003826207831
0.0003817342804
0.0003821887949
0.0003908972139
0.000391321053
0.0003915964917
0.0003904664773
0.0003918609873
0.0003901859163
0.000390536472
0.000393224851
0.0003932779655
0.0003930200473
0.0003933973494
0.0003930325911
0.0003926191712
0.0003922209726
0.0003935150453
0.0003937701695
0.0003940104507
0.0003948257945
0.0003945955832
0.0003950671526
0.0003949378151
0.0003941546311
0.0003939669405
0.0003925489145
0.0003935318382
0.000394507515
0.0003949590609
0.0003944173804
0.0003943453194
0.0003952408442
0.0003950123792
0.00039507568
0.0003951679391
0.0003951050167
0.0003958977177
0.0003959562164
0.0003957971931
0.0003956796427
0.0003956930595
0.0003755195357
0.0003760269319
0.0003770636395
0.0003765416914
0.0003792297211
0.0003786765737
0.0003775938821
0.0003781309351
0.000371621165
0.0003720885725
0.0003730511235
0.0003725667484
0.0003750359174
0.0003745281429
0.0003735377104
0.0003740289249
0.000384742918
0.0003815644304
0.0003831937793
0.0003848526103
0.0003799468977
0.0003863326565
0.000386272266
0.0003873596725
0.0003878133139
0.0003888090141
0.0003912253305
0.000390201807
0.0003914639237
0.000392491871
0.0003921877069
0.0003928074439
0.0003932668478
0.0003676131601
0.0003671902814
0.0003680470109
0.0003684818803
0.0003693577601
0.0003689198638
0.0003711667669
0.0003707068972
0.0003697970824
0.0003702466493
0.0003842080478
0.000384791143
0.0003880475415
0.0003885382321
0.0003878529242
0.0003873772803
0.000386895088
0.0003864540777
0.0003861897567
0.0003858158889
0.000385326508
0.0003898688592
0.0003894380643
0.000388994551
0.000379807374
0.0003803381405
0.0003813278745
0.0003808369511
0.0003831692447
0.0003837235272
0.000382701226
0.0003818035766
0.0003822629224
0.0003913489927
0.0003917551367
0.0003920619492
0.0003909493098
0.0003923808399
0.0003905035555
0.0003908778308
0.0003937474103
0.0003940238967
0.000393696595
0.0003939510207
0.0003935290733
0.0003931265383
0.0003927517682
0.0003942683397
0.0003945147619
0.0003948216618
0.0003956482979
0.0003953421547
0.0003956608707
0.0003954976564
0.0003946925281
0.0003947534133
0.000394818082
0.0003938998561
0.0003943422344
0.0003942381591
0.0003953417472
0.0003958295274
0.0003951949766
0.0003952156403
0.0003952604602
0.0003951301333
0.0003960633476
0.0003958646557
0.0003959213209
0.0003959778696
0.0003958699235
0.0003964884672
0.0003965367214
0.0003964141652
0.0003963173076
0.0003962993214
0.000375540345
0.0003760467225
0.000377083692
0.0003765625297
0.0003792589996
0.0003787012538
0.0003776147205
0.0003781531705
0.0003716257634
0.0003720936365
0.0003730544995
0.0003725712304
0.0003750401374
0.0003745311114
0.0003735409118
0.0003740323591
0.0003863317543
0.0003815856471
0.0003831328941
0.0003847426269
0.0003855000832
0.0003858685668
0.0003870299552
0.0003873528331
0.0003878424759
0.0003888764768
0.0003890274384
0.000388595392
0.0003902230819
0.0003921759198
0.0003919542651
0.0003910980886
0.0003908224171
0.0003923554614
0.0003934286942
0.0003929168452
0.0003930575622
0.0003935763962
0.0003936846333
0.0003941362666
0.0003676182532
0.0003671958111
0.0003680454683
0.0003684798721
0.0003693556355
0.0003689175355
0.0003711649042
0.0003707063734
0.0003697946668
0.0003702448448
0.0003842612496
0.0003848417546
0.0003883560421
0.0003888439387
0.0003880377626
0.0003875457915
0.0003870760556
0.0003866162442
0.0003862817248
0.0003858595155
0.0003853724338
0.0003901553282
0.0003897416173
0.0003893050016
0.0003798418038
0.0003803721047
0.0003813600051
0.0003808700421
0.0003832166549
0.000383749546
0.0003827440087
0.0003818360274
0.0003822987492
0.0003916509158
0.0003920380841
0.0003923793556
0.0003912785905
0.000392734335
0.0003907086502
0.000391095411
0.0003941154573
0.0003945392382
0.0003942339681
0.000394342962
0.0003938622249
0.0003934652195
0.0003931082902
0.0003948441008
0.0003950798709
0.0003953602281
0.0003962260962
0.0003959263267
0.0003960693139
0.0003958761226
0.0003950567334
0.0003955847642
0.0003956512955
0.0003947567893
0.0003951330436
0.0003950348473
0.0003959542955
0.0003964736825
0.0003960276081
0.0003960135218
0.0003961243492
0.0003959648893
0.0003966650402
0.0003965077631
0.0003965359938
0.0003965690848
0.0003964705393
0.000396889227
0.0003969195241
0.0003968328529
0.000396761985
0.0003967194643
0.000375544565
0.0003760518157
0.000377088727
0.0003765667207
0.0003792693897
0.0003787081223
0.0003776193189
0.0003781588166
0.0003716243373
0.0003720915411
0.0003730515891
0.0003725684655
0.0003750384203
0.0003745288413
0.0003735384671
0.0003740293614
0.0003873799578
0.0003823675506
0.0003829454072
0.0003841526923
0.0003837401746
0.0003857137053
0.000386384665
0.0003868232889
0.0003879624419
0.0003883127938
0.000388794113
0.0003895353293
0.0003897993593
0.0003898676077
0.0003893917892
0.0003911065578
0.0003930737148
0.0003928142833
0.0003919337469
0.0003916197747
0.0003930108796
0.0003941246832
0.000393773109
0.0003938985756
0.0003944103955
0.0003945173521
0.0003947698278
0.0003676171764
0.0003671949089
0.0003680423833
0.0003684767871
0.0003693523468
0.0003689147998
0.0003711619647
0.0003707026481
0.0003697921347
0.0003702424583
0.0003842877341
0.0003848663182
0.0003885423066
0.0003890307271
0.0003881398879
0.0003876429109
0.0003871653753
0.0003867108317
0.000386326632
0.0003858786949
0.0003853931266
0.0003903401957
0.0003899375151
0.0003894979309
0.0003798554244
0.0003803858999
0.0003813728399
0.0003808831098
0.0003832405782
0.0003837619151
0.000382762606
0.0003818488331
0.0003823128063
0.0003918408765
0.0003922142787
0.0003925774654
0.0003914851113
0.0003929525847
0.0003908304498
0.0003912207612
0.0003943557094
0.0003948764061
0.000394601695
0.0003945959907
0.0003940768365
0.0003936773282
0.0003933274711
0.0003952356637
0.0003954546992
0.0003957225999
0.0003966125078
0.0003963212366
0.0003963251365
0.0003961236798
0.0003952839761
0.000396199408
0.0003962930059
0.0003953702399
0.0003957458539
0.0003956323199
0.0003963727504
0.0003969182144
0.0003966625954
0.000396653486
0.0003967136436
0.0003965902142
0.0003970846592
0.0003969409445
0.0003969467652
0.0003969583777
0.0003968797973
0.0003971405386
0.0003971556434
0.0003970984835
0.0003970484831
0.0003969902464
0.0003755430807
0.000376049662
0.0003770861949
0.000376564567
0.0003792702628
0.0003787070164
0.0003776175727
0.0003781565756
0.0003716209903
0.0003720884561
0.0003730483004
0.0003725654096
0.0003750349861
0.0003745264257
0.0003735353821
0.0003740267712
0.0003881350567
0.0003832291404
0.0003839218116
0.0003850710345
0.0003845824976
0.0003864141181
0.0003870860382
0.000387565291
0.0003886922204
0.0003890426597
0.000389498804
0.0003903312027
0.0003906412167
0.000390474248
0.000390028581
0.0003917405265
0.0003937671136
0.000393475726
0.0003925794153
0.0003922432952
0.0003934638808
0.0003946145007
0.0003944390919
0.0003945550707
0.0003950247192
0.0003951416584
0.000395198731
0.0003676142369
0.0003671923187
0.0003843014711
0.0003848792112
0.0003886416089
0.0003891320666
0.0003881899174
0.0003876948031
0.000387214066
0.0003867599007
0.0003863455204
0.0003858866694
0.0003854040697
0.0003904504119
0.0003900543961
0.0003896087874
0.0003798599355
0.0003803904401
0.0003813781368
0.0003808885522
0.0003832513466
0.0003837681143
0.0003827703185
0.0003818539553
0.0003823173756
0.0003919493756
0.0003923155018
0.0003926890204
0.0003916025744
0.0003930735111
0.0003908979124
0.0003912866523
0.0003944973869
0.0003950848477
0.0003948354279
0.0003947454388
0.0003942059702
0.0003937993315
0.0003934484557
0.0003954814456
0.0003957003064
0.0003959402966
0.0003968570963
0.0003965684446
0.0003964695497
0.0003962405026
0.0003954129934
0.0003966121876
0.0003967340454
0.0003957794397
0.0003961614275
0.0003960251634
0.000396635558
0.0003972056147
0.0003971002297
0.0003971086699
0.00039710087
0.0003970035759
0.000397354539
0.0003972087579
0.000397196738
0.0003971937695
0.0003971358528
0.0003972846025
0.000397288095
0.0003972531704
0.0003972197301
0.0003971509286
0.0003755404032
0.0003760468389
0.0003770836629
0.0003765611618
0.0003792722709
0.0003787031455
0.0003776142257
0.0003781539854
0.0003886641061
0.0003838760604
0.0003845691099
0.0003857578558
0.0003852394293
0.0003868918284
0.0003875691618
0.0003880873555
0.0003891905071
0.0003895406262
0.0003899750882
0.0003909385705
0.0003912706161
0.0003908776271
0.0003904570185
0.000392166723
0.0003942549229
0.000393929542
0.0003930233652
0.0003926597419
0.0003937535803
0.0003949363308
0.0003948962549
0.0003950050159
0.0003954286221
0.0003955583379
0.0003954629356
0.0003843119775
0.0003848827328
0.0003886873601
0.0003891799424
0.0003882119781
0.0003877223935
0.0003872374655
0.0003867820487
0.0003863527381
0.0003858910641
0.000385408377
0.0003905139747
0.000390119123
0.0003896658891
0.0003798557445
0.0003803924483
0.000381381542
0.00038089187
0.0003832574293
0.0003827756736
0.0003818571568
0.0003823192092
0.0003920060699
0.0003923699842
0.0003927470825
0.0003916624992
0.0003931329411
0.0003909387451
0.0003913206165
0.0003945769859
0.0003952027473
0.0003949709353
0.0003948265803
0.0003942809417
0.0003938654845
0.0003935086424
0.0003956209985
0.0003958173911
0.000396051415
0.0003970017715
0.0003967100056
0.0003965430369
0.0003963047056
0.0003954807762
0.0003968696401
0.0003970183025
0.0003960289469
0.0003964204807
0.0003962606716
0.0003967871598
0.000397378084
0.0003973815765
0.0003974120482
0.0003973362618
0.0003972564009
0.000397513737
0.000397360127
0.0003973344283
0.000397320604
0.0003972823906
0.0003973612911
0.0003973554994
0.0003973357962
0.0003973142593
0.0003972411505
0.0003890123626
0.0003843087179
0.0003849925706
0.0003862237209
0.0003856715048
0.0003871957888
0.0003878725111
0.0003884325561
0.0003895049158
0.0003898549476
0.0003902703174
0.0003913383116
0.0003916937858
0.0003911199747
0.0003907145292
0.0003924305784
0.0003945757635
0.0003942179319
0.0003933056141
0.0003929145751
0.0003939240123
0.0003951346735
0.000395185285
0.0003952883417
0.0003956709115
0.0003958158195
0.0003956107248
0.0003887058701
0.0003891992965
0.0003882255987
0.0003877385752
0.0003872538509
0.000386793341
0.0003863551538
0.0003905529738
0.0003901543096
0.0003896928683
0.0003920349409
0.0003924009507
0.0003927776997
0.0003916913702
0.0003931599203
0.0003909657535
0.000391341222
0.0003946223296
0.0003952639236
0.0003950438986
0.0003948695376
0.0003943265474
0.0003938999726
0.0003935353016
0.0003956932342
0.00039588238
0.0003960937611
0.0003970820107
0.0003967842786
0.0003965769429
0.0003963370982
0.0003955177963
0.000397013675
0.0003971865517
0.0003961675102
0.0003965685028
0.000396386662
0.0003968676901
0.0003974755818
0.0003975483123
0.00039760035
0.0003974629508
0.0003973956045
0.0003976002627
0.0003974370775
0.000397402735
0.0003973815183
0.0003973583516
0.000397400494
0.00039738958
0.0003973790735
0.0003973655112
0.0003972942068
0.0003892271779
0.0003845688479
0.0003852439113
0.000386520027
0.0003859316348
0.0003873719543
0.0003880441946
0.000388641376
0.0003896845155
0.0003900359734
0.0003904367913
0.0003915782436
0.0003919603187
0.0003912486718
0.0003908502404
0.0003925814526
0.0003947702353
0.0003943826305
0.0003934702545
0.0003930523526
0.0003940189781
0.0003952517
0.0003953534178
0.0003954519925
0.0003957985609
0.0003959592432
0.0003956850851
0.0003887146013
0.0003892075911
0.0003882333403
0.0003877498093
0.0003872649395
0.000386802596
0.0003905798658
0.000390174624
0.0003897039569
0.0003920515592
0.0003924204502
0.0003927996731
0.0003917066788
0.0003931749379
0.0003909806837
0.000391353271
0.0003946536453
0.0003952966945
0.0003950817045
0.0003948953818
0.0003943582415
0.0003939183953
0.0003935468849
0.0003957294684
0.0003959136084
0.0003961196635
0.0003971293045
0.0003968208912
0.0003965935612
0.000396357209
0.0003955429129
0.0003970861726
0.0003972795967
0.0003962378833
0.0003966463846
0.0003964469361
0.0003969101526
0.0003975309373
0.0003976403677
0.0003977116721
0.0003975226136
0.0003974635911
0.0003976455191
0.0003974730789
0.000397435826
0.0003974098945
0.0003973969724
0.0003974275896
0.000397412543
0.0003974064894
0.0003973995626
0.0003973345738
0.0003893536341
0.0003847049666
0.0003853767994
0.0003866953193
0.0003860704601
0.00038746887
0.0003881307784
0.0003887613129
0.0003897785791
0.0003901315213
0.0003905218327
0.0003917064168
0.000392112328
0.000391311245
0.0003909133666
0.0003926611971
0.0003948815865
0.0003944686032
0.0003935597488
0.0003931196989
0.000394072471
0.0003953224805
0.0003954450949
0.0003955381981
0.000395857438
0.0003960319737
0.0003957207082
0.0003887203638
0.000389212335
0.0003905952908
0.0003901808232
0.0003897100105
0.0003920614254
0.0003924328194
0.0003928110236
0.0003917135182
0.0003931862593
0.0003946748911
0.0003953197447
0.0003951046383
0.0003949101956
0.0003943633346
0.0003939388844
0.0003935501445
0.0003957502195
0.0003959303431
0.0003961344773
0.0003971656843
0.0003968392848
0.0003965994692
0.0003963687923
0.000395559473
0.0003971239203
0.0003973303828
0.0003962735645
0.0003966874792
0.0003964749922
0.000396937452
0.0003975665313
0.0003976930166
0.0003977767774
0.0003975487198
0.0003974944993
0.0003976713633
0.0003974915016
0.0003974536667
0.0003974270076
0.0003974193824
0.000397444237
0.0003974337014
0.0003974260762
0.0003974196734
0.0003973609419
0.0003894300899
0.0003847707412
0.0003854392271
0.0003867896157
0.0003861372825
0.0003875222756
0.0003881762968
0.000388829736
0.0003898274445
0.0003901772434
0.0003905621124
0.0003917660797
0.000392193906
0.0003913402616
0.0003909406369
0.0003927028447
0.0003949451493
0.0003945149365
0.000393608585
0.0003931524407
0.0003941082978
0.0003953753039
0.0003954951244
0.0003955803113
0.0003958825546
0.0003960679169
0.0003957403242
0.0003953370615
0.000395121926
0.0003957609879
0.0003959408496
0.00039614446
0.0003971760161
0.0003968635283
0.0003971473197
0.0003973620187
0.0003962962946
0.0003967106459
0.0003964927164
0.0003969509562
0.0003975850996
0.0003977288434
0.0003978215973
0.0003975618456
0.000397510943
0.000397699012
0.0003975006402
0.0003974665597
0.0003974395804
0.0003974383289
0.00038948562
0.0003847985645
0.0003854719107
0.0003868415079
0.0003861679579
0.0003875571711
0.0003882083693
0.0003888754873
0.0003898600989
0.0003901994787
0.0003905811463
0.0003917927388
0.0003922357282
0.0003913559485
0.0003909546649
0.0003927289217
0.0003949881648
0.0003945462813
0.0003936395224
0.0003931740357
0.0003941282339
0.0003953924461
0.0003955266729
0.0003956014698
0.0003958963789
0.0003960868344
0.0003957507724
0.0003971643746
0.0003973812563
0.0003963098861
0.0003967258963
0.000396509131
0.0003977585584
0.0003978276509
0.0003975733998
0.0003975240106
0.0003895043046
0.0003848143388
0.0003854878596
0.0003868730564
0.0003861869336
0.0003875776019
0.0003882343299
0.0003889104701
0.000389887311
0.0003902164754
0.0003905883932
0.0003918081347
0.000392260059
0.0003913694818
0.0003909638326
0.0003927426878
0.0003950218379
0.0003945710196
0.0003936604189
0.000393192895
0.0003955495486
0.0003956213477
0.0003959109308
0.0003961036564
0.00038482534
0.0003855026443
0.0003868930507
0.0003861990699
0.0003918170114
0.0003922780743
0.0003374038497
0.0003393531952
0.0003335056244
0.0003412083606
0.0003350479819
0.0003301274846
0.0003364300937
0.0003428753698
0.0003310537431
0.0003275544732
0.0003319811367
0.0003376074601
0.0003441574518
0.0003277308133
0.0003248067223
0.000332688709
0.0003280524106
0.0003385512682
0.0003457062994
0.0003250909795
0.0003217096673
0.0003283391998
0.0003332930792
0.0003253163304
0.0003395943495
0.0003463131434
0.0003218808561
0.0003194271994
0.0003285263083
0.0003251438029
0.0003338073438
0.0003217775957
0.0003395671083
0.0003461627348
0.0003193163429
0.0003164228401
0.0003244841646
0.0003282886464
0.0003210415016
0.0003331661574
0.0003186651156
0.0003389961203
0.0003451871162
0.0003158155014
0.000314474164
0.0003231548471
0.0003199120983
0.0003273035691
0.0003170313139
0.0003322109696
0.0003149553959
0.0003374377557
0.0003434995015
0.0003134094877
0.0003120646288
0.0003218621714
0.0003183533263
0.0003153848229
0.0003257740173
0.0003135211009
0.0003300481185
0.0003121624759
0.0003352176282
0.0003409415367
0.0003110127582
0.0003099547175
0.0003168185067
0.0003196739126
0.0003138973261
0.0003118507739
0.0003231604642
0.0003106767836
0.0003273014445