/*--------------------------------*- C++ -*----------------------------------*\
  =========                 |
  \\      /  F ield         | OpenFOAM: The Open Source CFD Toolbox
   \\    /   O peration     | Website:  https://openfoam.org
    \\  /    A nd           | Version:  8
     \\/     M anipulation  |
\*---------------------------------------------------------------------------*/






FoamFile
{
    version     2.0;
    format      ascii;
    class       volSymmTensorField;
    location    "0";
    object      TauDDES;
}
// * * * * * * * * * * * * * * * * * * * * * * * * * * * * * * * * * * * * * //

dimensions      [0 2 -2 0 0 0 0];


internalField   nonuniform List<symmTensor>
21771
(
( 2.51819547e-05 -8.053341844e-06 -2.368170158e-07 1.704140959e-05 -1.052440979e-07 2.157438576e-05 )
( 2.482737364e-05 -7.876280506e-06 -3.085810647e-07 1.659346708e-05 -9.880886864e-08 2.15307391e-05 )
( 2.434750604e-05 -7.186811672e-06 -3.278970269e-07 1.591584805e-05 -1.198393704e-07 2.166092963e-05 )
( 2.401120946e-05 -7.029048447e-06 -3.9303319e-07 1.545755731e-05 -8.971908727e-08 2.170584594e-05 )
( 2.438705997e-05 -7.712849765e-06 -3.860713207e-07 1.610563595e-05 -7.4933169e-08 2.161948942e-05 )
( 2.344402674e-05 -6.096243396e-06 -3.140755496e-07 1.4278653e-05 -1.348495289e-07 2.180917181e-05 )
( 2.313610094e-05 -5.960124781e-06 -4.017238666e-07 1.381850416e-05 -9.995619621e-08 2.193368891e-05 )
( 2.352133015e-05 -6.849962574e-06 -4.724765006e-07 1.490624163e-05 -5.243066425e-08 2.189674706e-05 )
( 2.379616308e-05 -7.540219485e-06 -4.390108188e-07 1.556269672e-05 -4.658393848e-08 2.182904427e-05 )
( 2.26292068e-05 -4.805373919e-06 -2.770187848e-07 1.201514078e-05 -1.575448181e-07 2.209476042e-05 )
( 2.270194818e-05 -5.822029379e-06 -4.927981081e-07 1.333854925e-05 -5.647665446e-08 2.217427937e-05 )
( 2.232258885e-05 -4.604476089e-06 -3.537699058e-07 1.140514087e-05 -1.14550943e-07 2.229736674e-05 )
( 2.281509296e-05 -6.592841601e-06 -5.308423852e-07 1.423149297e-05 -2.425403345e-08 2.22136332e-05 )
( 2.337252408e-05 -7.466518582e-06 -4.568980501e-07 1.511095161e-05 -2.717973402e-08 2.191326348e-05 )
( 2.2356111e-05 -4.081698989e-06 -1.786935258e-07 1.050263927e-05 -1.563039405e-07 2.227600999e-05 )
( 2.222661533e-05 -4.007363714e-06 -1.942827339e-07 1.028580118e-05 -1.416264439e-07 2.235767897e-05 )
( 2.211442916e-05 -5.636143669e-06 -5.596194796e-07 1.281139521e-05 -1.06129221e-08 2.249881254e-05 )
( 2.18985333e-05 -4.40310896e-06 -3.761067262e-07 1.083747338e-05 -6.394859753e-08 2.254547508e-05 )
( 2.204162956e-05 -3.848273991e-06 -2.135219859e-07 9.841795872e-06 -1.129174336e-07 2.248585952e-05 )
( 2.182885692e-05 -3.658208016e-06 -1.935841709e-07 9.370861335e-06 -8.059079448e-08 2.259036773e-05 )
( 2.234031126e-05 -6.449581178e-06 -5.706394859e-07 1.371076451e-05 -6.111186224e-09 2.234749809e-05 )
( 2.232157931e-05 -7.037652722e-06 -5.384993074e-07 1.408625485e-05 2.128659027e-08 2.174872679e-05 )
( 2.220199895e-05 -3.074815595e-06 1.100824392e-07 7.83419091e-06 -9.861934558e-08 2.251033402e-05 )
( 2.204034899e-05 -3.020139729e-06 1.07254067e-07 7.680459021e-06 -8.437594801e-08 2.255260915e-05 )
( 2.14899319e-05 -4.260693458e-06 -4.142086141e-07 1.044098917e-05 -1.77313968e-08 2.28534409e-05 )
( 2.155755828e-05 -5.354763744e-06 -5.984636005e-07 1.206315574e-05 2.409780109e-08 2.266313822e-05 )
( 2.156211485e-05 -3.486363312e-06 -1.647689771e-07 8.960660125e-06 -5.815984494e-08 2.272728671e-05 )
( 2.137595038e-05 -3.384919637e-06 -1.459169283e-07 8.745402738e-06 -5.297717109e-08 2.281306115e-05 )
( 2.186511847e-05 -2.938467787e-06 1.119053508e-07 7.48034654e-06 -6.939200858e-08 2.259709618e-05 )
( 2.165391197e-05 -2.828446213e-06 1.113129926e-07 7.231346444e-06 -5.448616491e-08 2.264177056e-05 )
( 2.130258326e-05 -5.941355994e-06 -6.462684041e-07 1.259094097e-05 4.35681855e-08 2.231950566e-05 )
( 2.1241387e-05 -6.650172054e-06 -5.957122653e-07 1.321867239e-05 7.287650305e-08 2.198452967e-05 )
( 2.230591781e-05 -2.606318731e-06 2.760716029e-07 6.388955626e-06 -6.519767481e-08 2.251386832e-05 )
( 2.223279989e-05 -2.583062269e-06 2.764816145e-07 6.319856766e-06 -5.892229638e-08 2.252065315e-05 )
( 2.207048419e-05 -2.52639029e-06 2.812569448e-07 6.187974577e-06 -4.679883148e-08 2.253039929e-05 )
( 2.214568667e-05 -2.554080311e-06 2.766863361e-07 6.25880466e-06 -5.104161005e-08 2.252891136e-05 )
( 2.116207179e-05 -3.958273737e-06 -4.028561591e-07 9.803779903e-06 1.281437889e-08 2.315215715e-05 )
( 2.118080374e-05 -3.305955943e-06 -1.642642218e-07 8.578109373e-06 -4.120504826e-08 2.294108708e-05 )
( 2.104881787e-05 -3.258542392e-06 -1.798333358e-07 8.484178579e-06 -3.63765551e-08 2.304319969e-05 )
( 2.132697591e-05 -4.599427939e-06 -5.327364079e-07 1.089175748e-05 2.501062468e-08 2.28811241e-05 )
( 2.102908729e-05 -4.551361599e-06 -5.547239539e-07 1.065361903e-05 4.577670154e-08 2.289481927e-05 )
( 2.065423905e-05 -4.726736279e-06 -6.106203045e-07 1.08293525e-05 7.360883103e-08 2.292412682e-05 )
( 2.140183642e-05 -2.73359683e-06 1.103798652e-07 7.060407825e-06 -5.030038963e-08 2.272353595e-05 )
( 2.117985059e-05 -2.572213589e-06 8.646799188e-08 6.731637313e-06 -4.324692071e-08 2.281753586e-05 )
( 2.197431058e-05 -2.490561428e-06 2.858449761e-07 6.124284482e-06 -4.499848316e-08 2.252988816e-05 )
( 2.188311555e-05 -2.458165909e-06 2.885132346e-07 6.053386642e-06 -4.293594458e-08 2.252672675e-05 )
( 2.165643673e-05 -2.375492386e-06 2.82351607e-07 5.905683793e-06 -3.977475771e-08 2.254897299e-05 )
( 2.176314956e-05 -2.41721591e-06 2.894686304e-07 5.984428299e-06 -4.071625881e-08 2.252922968e-05 )
( 2.027702976e-05 -5.438665085e-06 -6.707036846e-07 1.164522655e-05 8.870834733e-08 2.26810771e-05 )
( 2.053449134e-05 -6.389677765e-06 -6.21835909e-07 1.271252768e-05 1.080145751e-07 2.228840822e-05 )
( 2.239893001e-05 -2.637027137e-06 2.655907281e-07 6.45106411e-06 -7.210146435e-08 2.250493526e-05 )
( 2.250155012e-05 -2.115609959e-06 4.112820591e-07 4.860287845e-06 -2.635777463e-08 2.232734005e-05 )
( 2.243888594e-05 -2.095425316e-06 4.13854309e-07 4.816158707e-06 -2.553056966e-08 2.231765575e-05 )
( 2.227394725e-05 -2.042285359e-06 4.233258721e-07 4.712142527e-06 -2.411975863e-08 2.227951154e-05 )
( 2.235181455e-05 -2.063126203e-06 4.146012316e-07 4.756777344e-06 -2.351355555e-08 2.230028076e-05 )
( 2.08021047e-05 -3.144491984e-06 -2.033931992e-07 8.244037417e-06 -1.758208867e-08 2.327678703e-05 )
( 2.080878767e-05 -3.821716746e-06 -4.166504652e-07 9.438227607e-06 3.458688624e-08 2.328227674e-05 )
( 2.097620563e-05 -2.473442009e-06 6.511969275e-08 6.578437478e-06 -4.421200828e-08 2.292527097e-05 )
( 2.081368257e-05 -2.329455583e-06 5.22924104e-08 6.313395716e-06 -3.993307374e-08 2.304054215e-05 )
( 2.058975042e-05 -4.16884086e-06 -5.408459174e-07 9.945544662e-06 7.059839646e-08 2.315657184e-05 )
( 2.009288255e-05 -3.654999091e-06 -5.094855169e-07 9.19334434e-06 9.405691515e-08 2.366886474e-05 )
( 1.953990795e-05 -4.073983291e-06 -5.981690947e-07 9.74768318e-06 1.166443013e-07 2.357172707e-05 )
( 2.152191519e-05 -2.328519258e-06 2.67182287e-07 5.850512935e-06 -4.088793659e-08 2.258350287e-05 )
( 2.145230064e-05 -2.214564347e-06 2.568330615e-07 5.596317351e-06 -3.961146788e-08 2.259852772e-05 )
( 2.122733895e-05 -2.014480742e-06 2.312632716e-07 5.22318669e-06 -3.946779614e-08 2.268857861e-05 )
( 2.132283589e-05 -2.125564379e-06 2.388870257e-07 5.438190328e-06 -3.877901023e-08 2.264350223e-05 )
( 2.217069232e-05 -2.005072702e-06 4.217136222e-07 4.656914825e-06 -2.313565339e-08 2.225617391e-05 )
( 2.208132355e-05 -1.97904933e-06 4.15466161e-07 4.612598332e-06 -2.503980667e-08 2.224173477e-05 )
( 2.18652458e-05 -1.901165774e-06 4.000942226e-07 4.495747817e-06 -3.032191387e-08 2.225801109e-05 )
( 2.196623791e-05 -1.934577085e-06 4.13494547e-07 4.550102858e-06 -2.756321038e-08 2.224252239e-05 )
( 1.95795219e-05 -5.129651981e-06 -6.58824888e-07 1.111383972e-05 1.129575011e-07 2.310911805e-05 )
( 1.966188029e-05 -6.009053777e-06 -5.984751965e-07 1.213042196e-05 1.072535696e-07 2.279743421e-05 )
( 2.259103894e-05 -2.151689841e-06 4.040514057e-07 4.92163781e-06 -3.20457012e-08 2.233025043e-05 )
( 2.252570812e-05 -1.797362529e-06 4.695461371e-07 3.895663667e-06 -2.902064811e-09 2.19277772e-05 )
( 2.249905265e-05 -1.787212796e-06 4.707118535e-07 3.879787982e-06 -2.710488722e-09 2.191832755e-05 )
( 2.242996561e-05 -1.769178084e-06 4.723804636e-07 3.825098247e-06 -2.702992719e-09 2.189131192e-05 )
( 2.245527503e-05 -1.777430498e-06 4.70726718e-07 3.840470072e-06 -2.25003971e-09 2.19044141e-05 )
( 2.22557901e-05 -1.719973284e-06 4.763417962e-07 3.745765525e-06 -4.699090006e-09 2.181795753e-05 )
( 2.229093479e-05 -1.729390192e-06 4.76024212e-07 3.760073696e-06 -4.056038172e-09 2.183132892e-05 )
( 2.238140041e-05 -1.749172611e-06 4.720617426e-07 3.813761396e-06 -3.942659532e-09 2.186520032e-05 )
( 2.23466177e-05 -1.739026857e-06 4.735325092e-07 3.797773843e-06 -3.821230443e-09 2.185098856e-05 )
( 2.049442992e-05 -2.121070111e-06 3.542525917e-08 6.004358511e-06 -3.186579534e-08 2.327816219e-05 )
( 2.030464748e-05 -2.767953674e-06 -2.068686484e-07 7.549179372e-06 -4.063829273e-09 2.361320003e-05 )
( 2.026732363e-05 -3.330298796e-06 -4.099167938e-07 8.609521501e-06 5.191641606e-08 2.371224946e-05 )
( 2.104598025e-05 -1.97133113e-06 2.082133932e-07 5.229615454e-06 -3.86037442e-08 2.278712236e-05 )
( 2.095936361e-05 -1.867196829e-06 2.08730313e-07 5.029115073e-06 -3.604817067e-08 2.284880611e-05 )
( 2.077224963e-05 -1.615942551e-06 2.123049683e-07 4.604185051e-06 -3.424291251e-08 2.297405445e-05 )
( 2.08433994e-05 -1.774271936e-06 2.039552243e-07 4.90123648e-06 -3.603841137e-08 2.291974488e-05 )
( 1.956053893e-05 -2.757263246e-06 -3.831031847e-07 7.745896255e-06 6.675825404e-08 2.426543506e-05 )
( 1.943739881e-05 -3.251464477e-06 -4.952107702e-07 8.596411135e-06 1.201330093e-07 2.420621968e-05 )
( 1.898937808e-05 -3.037780289e-06 -4.863341019e-07 8.308519682e-06 1.315245015e-07 2.460486394e-05 )
( 1.864047772e-05 -3.596932174e-06 -5.484751568e-07 9.108254744e-06 1.32170598e-07 2.435416718e-05 )
( 2.170921834e-05 -1.840081723e-06 3.707684471e-07 4.430201443e-06 -3.185348518e-08 2.229762504e-05 )
( 2.158692041e-05 -1.791171826e-06 3.480986095e-07 4.375100161e-06 -3.169691354e-08 2.233873965e-05 )
( 2.130011489e-05 -1.65292829e-06 3.055536411e-07 4.241119768e-06 -3.061150977e-08 2.246459917e-05 )
( 2.145452527e-05 -1.661148531e-06 3.259668233e-07 4.158882348e-06 -3.089174783e-08 2.238960042e-05 )
( 2.219641101e-05 -1.698113124e-06 4.693761184e-07 3.737396128e-06 -6.996941693e-09 2.179768671e-05 )
( 2.215565473e-05 -1.685130769e-06 4.640675684e-07 3.720850145e-06 -6.918973394e-09 2.178547766e-05 )
( 2.205998862e-05 -1.656139375e-06 4.494233963e-07 3.664011956e-06 -9.165341375e-09 2.177596616e-05 )
( 2.209424929e-05 -1.668920277e-06 4.54600098e-07 3.681545195e-06 -7.635635235e-09 2.178041541e-05 )
( 2.182125718e-05 -1.57782722e-06 4.147715629e-07 3.570099352e-06 -1.492048263e-08 2.180071715e-05 )
( 2.187298742e-05 -1.596459128e-06 4.2464481e-07 3.590163715e-06 -1.392994253e-08 2.179066723e-05 )
( 2.198455877e-05 -1.630336669e-06 4.418863568e-07 3.652003215e-06 -1.175661968e-08 2.177299757e-05 )
( 2.194141234e-05 -1.616237796e-06 4.382673637e-07 3.633213282e-06 -1.309410003e-08 2.177586612e-05 )
( 1.871553468e-05 -4.606645234e-06 -5.977015007e-07 1.04144392e-05 1.116050043e-07 2.392152237e-05 )
( 1.886222526e-05 -5.592450634e-06 -5.497674351e-07 1.164757123e-05 7.940005275e-08 2.347904228e-05 )
( 2.257156666e-05 -1.820650368e-06 4.69665423e-07 3.906533038e-06 -4.244614882e-09 2.194492117e-05 )
( 2.259885878e-05 -1.831239842e-06 4.669097962e-07 3.92196398e-06 -5.230883726e-09 2.195209709e-05 )
( 2.229679922e-05 -1.483749884e-06 4.93165544e-07 2.905831025e-06 1.463585875e-08 2.111212962e-05 )
( 2.227283585e-05 -1.471528662e-06 4.890518426e-07 2.887784603e-06 1.437795039e-08 2.109054913e-05 )
( 2.219647286e-05 -1.455729034e-06 4.861196885e-07 2.856830861e-06 1.37220022e-08 2.103571387e-05 )
( 2.222023068e-05 -1.464435059e-06 4.875369086e-07 2.87411126e-06 1.430632324e-08 2.106124521e-05 )
( 2.200737799e-05 -1.411352059e-06 4.66728693e-07 2.79863707e-06 1.126259708e-08 2.094601405e-05 )
( 2.204053089e-05 -1.4231573e-06 4.747923015e-07 2.8169693e-06 1.295197993e-08 2.0957792e-05 )
( 2.214024789e-05 -1.442281473e-06 4.812263796e-07 2.849972589e-06 1.386689519e-08 2.100388156e-05 )
( 2.210548701e-05 -1.430078783e-06 4.766271502e-07 2.830889116e-06 1.292322249e-08 2.098374171e-05 )
( 2.045689507e-05 -1.404249247e-06 1.942531469e-07 4.306004485e-06 -2.650543962e-08 2.309627416e-05 )
( 2.0316269e-05 -1.29656155e-06 1.904971469e-07 4.175298727e-06 -2.364981988e-08 2.320626481e-05 )
( 2.014994243e-05 -1.773641543e-06 6.251942608e-08 5.366889582e-06 -2.770969054e-08 2.348414091e-05 )
( 2.024033165e-05 -2.308254352e-06 -6.235381989e-08 6.5357126e-06 -2.501444918e-08 2.351767034e-05 )
( 1.975463601e-05 -2.375404847e-06 -2.19800981e-07 6.880365618e-06 4.717412239e-09 2.403982398e-05 )
( 2.000017412e-05 -2.189707175e-06 -8.562447817e-08 6.384247627e-06 -1.821607221e-08 2.370825314e-05 )
( 2.116331598e-05 -1.501062911e-06 2.976776727e-07 3.990622645e-06 -2.850028302e-08 2.25379008e-05 )
( 2.095886703e-05 -1.479273124e-06 2.737082241e-07 4.082591204e-06 -2.462783044e-08 2.266089723e-05 )
( 2.034361205e-05 -1.083966708e-06 2.511367541e-07 3.414725143e-06 -1.384914849e-08 2.26347056e-05 )
( 2.083552681e-05 -1.336184027e-06 2.773860786e-07 3.847559128e-06 -2.201662141e-08 2.274931103e-05 )
( 1.899051313e-05 -1.686600399e-06 -1.856378873e-07 5.827630048e-06 1.003799444e-08 2.470855179e-05 )
( 1.891113061e-05 -2.342950893e-06 -3.728214892e-07 7.176437521e-06 7.845726913e-08 2.481672527e-05 )
( 1.84370092e-05 -2.078797706e-06 -3.495081558e-07 6.86444173e-06 7.954174919e-08 2.531149039e-05 )
( 1.841408812e-05 -2.724983233e-06 -4.528566535e-07 7.931879736e-06 1.303836115e-07 2.509866863e-05 )
( 1.787274778e-05 -2.383223773e-06 -4.207095401e-07 7.586158972e-06 1.18667451e-07 2.564824899e-05 )
( 1.836467527e-05 -3.781542773e-06 -5.563221066e-07 9.354881513e-06 1.344144067e-07 2.455682261e-05 )
( 1.781711762e-05 -2.971675713e-06 -4.75949804e-07 8.386127774e-06 1.299844854e-07 2.534403757e-05 )
( 2.172221321e-05 -1.541405481e-06 3.96322605e-07 3.55403472e-06 -1.684153972e-08 2.181944546e-05 )
( 2.166647391e-05 -1.519134685e-06 3.837597831e-07 3.532267328e-06 -1.686686879e-08 2.183434844e-05 )
( 2.151426997e-05 -1.45661852e-06 3.557800312e-07 3.460691232e-06 -1.539360461e-08 2.189432598e-05 )
( 2.157264316e-05 -1.483639608e-06 3.645548077e-07 3.485085699e-06 -1.51306736e-08 2.187392784e-05 )
( 2.122688238e-05 -1.324499294e-06 3.255616718e-07 3.356717571e-06 -1.157237595e-08 2.202614451e-05 )
( 2.126454638e-05 -1.343788085e-06 3.286707226e-07 3.377167786e-06 -1.243187775e-08 2.200719609e-05 )
( 2.140160359e-05 -1.406520823e-06 3.408495672e-07 3.437643954e-06 -1.493650004e-08 2.193869113e-05 )
( 2.13608655e-05 -1.386751478e-06 3.376866573e-07 3.423971975e-06 -1.351501133e-08 2.195573143e-05 )
( 2.194117042e-05 -1.394679998e-06 4.555591886e-07 2.792226041e-06 1.086129942e-08 2.092766772e-05 )
( 2.189253973e-05 -1.378843081e-06 4.457099294e-07 2.77203776e-06 1.044349318e-08 2.092214891e-05 )
( 2.176840462e-05 -1.349258696e-06 4.201601769e-07 2.736127954e-06 9.840483983e-09 2.091654642e-05 )
( 2.181665332e-05 -1.366445417e-06 4.335176698e-07 2.756080448e-06 1.0704305e-08 2.091300667e-05 )
( 2.148674503e-05 -1.271032943e-06 3.717237291e-07 2.666267392e-06 7.732825047e-09 2.094486445e-05 )
( 2.15511609e-05 -1.295181164e-06 3.838539442e-07 2.688884933e-06 7.866947982e-09 2.092677278e-05 )
( 2.16895678e-05 -1.330157716e-06 4.100382398e-07 2.726913863e-06 8.709350574e-09 2.091200258e-05 )
( 2.163369936e-05 -1.310812877e-06 3.962259711e-07 2.706217856e-06 8.214885661e-09 2.092029717e-05 )
( 1.769306618e-05 -3.972374543e-06 -4.991591709e-07 9.816679267e-06 7.129581547e-08 2.509090336e-05 )
( 1.791144678e-05 -3.541046908e-06 -5.290540344e-07 9.135190339e-06 1.253645934e-07 2.514963853e-05 )
( 1.791616887e-05 -4.952206837e-06 -4.887493219e-07 1.103158775e-05 3.795575765e-08 2.454123205e-05 )
( 2.234635031e-05 -1.502329496e-06 4.975371439e-07 2.912700438e-06 1.393140359e-08 2.113733899e-05 )
( 2.236764885e-05 -1.515190093e-06 5.010712698e-07 2.93029575e-06 1.427776652e-08 2.115609823e-05 )
( 2.178505747e-05 -1.193179401e-06 4.73856403e-07 2.108645504e-06 1.271382999e-08 2.0100455e-05 )
( 2.173803841e-05 -1.185634801e-06 4.679742176e-07 2.104656232e-06 1.265972482e-08 2.007166768e-05 )
( 2.163844692e-05 -1.168531298e-06 4.562057256e-07 2.085583901e-06 1.379151993e-08 2.000946915e-05 )
( 2.168812534e-05 -1.173190185e-06 4.614127533e-07 2.089606596e-06 1.319630982e-08 2.00376835e-05 )
( 2.14108768e-05 -1.127510018e-06 4.174410435e-07 2.042812866e-06 1.248861015e-08 1.992138823e-05 )
( 2.146743464e-05 -1.133764954e-06 4.277858352e-07 2.048673423e-06 1.205852662e-08 1.993531077e-05 )
( 2.158270581e-05 -1.153717335e-06 4.473478157e-07 2.071149765e-06 1.294039986e-08 1.997791333e-05 )
( 2.152681918e-05 -1.146881118e-06 4.387207184e-07 2.065625495e-06 1.283189022e-08 1.995698403e-05 )
( 2.003736518e-05 -8.685327657e-07 2.460816972e-07 3.07051323e-06 -7.917776657e-09 2.272283382e-05 )
( 1.995858656e-05 -1.042338113e-06 1.850889646e-07 3.810174803e-06 -2.385389664e-08 2.344548011e-05 )
( 1.970017183e-05 -6.731797271e-07 2.279580542e-07 2.85679107e-06 -6.109344142e-09 2.293670696e-05 )
( 1.983128459e-05 -1.524435334e-06 6.166762745e-08 4.963742867e-06 -1.956382434e-08 2.36943888e-05 )
( 1.96890669e-05 -1.967619255e-06 -1.002519525e-07 6.0178686e-06 -1.350590573e-08 2.395554475e-05 )
( 1.941451592e-05 -1.719904731e-06 -9.299328951e-08 5.674041404e-06 -1.372102254e-08 2.424578088e-05 )
( 2.108723493e-05 -1.256422934e-06 3.135327233e-07 3.318476956e-06 -1.188845999e-08 2.209681406e-05 )
( 2.103726729e-05 -1.228774522e-06 3.097893e-07 3.301928245e-06 -8.82789486e-09 2.212407708e-05 )
( 2.082003994e-05 -1.130842975e-06 2.959599783e-07 3.210046998e-06 -5.602458497e-09 2.224363197e-05 )
( 2.088016845e-05 -1.15636783e-06 3.000704965e-07 3.236603561e-06 -5.364241495e-09 2.22129238e-05 )
( 1.972915197e-05 -6.920899978e-07 2.371244676e-07 2.517227585e-06 4.780940088e-09 2.206892532e-05 )
( 2.000178392e-05 -7.956043078e-07 2.517665223e-07 2.700493269e-06 2.905099716e-09 2.212339314e-05 )
( 2.063534157e-05 -1.041609949e-06 2.832513815e-07 3.152420504e-06 -4.487973992e-09 2.233769374e-05 )
( 2.042264896e-05 -9.429246575e-07 2.708030138e-07 2.980020099e-06 -7.893581344e-10 2.227060941e-05 )
( 1.864276783e-05 -1.018653165e-06 -3.388776193e-08 4.724409337e-06 -1.891998913e-08 2.508947e-05 )
( 1.898088885e-05 -1.2982523e-06 -6.129243957e-08 5.080695246e-06 -1.476081124e-08 2.472594497e-05 )
( 1.844812141e-05 -1.469359631e-06 -1.976946038e-07 5.717003205e-06 1.984954778e-08 2.525957643e-05 )
( 1.778570368e-05 -1.642652023e-06 -3.017924257e-07 6.390248473e-06 6.264048125e-08 2.603344183e-05 )
( 1.804709609e-05 -1.452968945e-06 -2.521898352e-07 5.935203262e-06 3.783268454e-08 2.573206802e-05 )
( 1.830833753e-05 -1.662842124e-06 -2.704755957e-07 6.155240044e-06 4.280080645e-08 2.538875742e-05 )
( 1.705854265e-05 -1.734083185e-06 -3.51615995e-07 6.905805094e-06 9.476513441e-08 2.66947136e-05 )
( 1.698329106e-05 -1.122550429e-06 -2.595712374e-07 5.933790817e-06 4.803300158e-08 2.701637095e-05 )
( 1.709431126e-05 -2.484418474e-06 -4.229278261e-07 7.882386853e-06 1.072395008e-07 2.630339804e-05 )
( 2.138478521e-05 -1.243071097e-06 3.565467637e-07 2.654802074e-06 7.413914815e-09 2.096024036e-05 )
( 2.130899338e-05 -1.213027076e-06 3.428793036e-07 2.630247081e-06 7.353358367e-09 2.099014819e-05 )
( 2.112397488e-05 -1.149270361e-06 3.158029074e-07 2.581886747e-06 8.514525085e-09 2.105972817e-05 )
( 2.12061168e-05 -1.186659802e-06 3.283483352e-07 2.609065859e-06 8.44435899e-09 2.101911923e-05 )
( 2.068214962e-05 -9.747276408e-07 2.841396167e-07 2.477796897e-06 1.146216722e-08 2.12625946e-05 )
( 2.080451668e-05 -1.034455408e-06 2.922263889e-07 2.520797807e-06 1.188895382e-08 2.119017699e-05 )
( 2.100528218e-05 -1.108004426e-06 3.041950833e-07 2.564142051e-06 1.047555998e-08 2.10996659e-05 )
( 2.091077477e-05 -1.065061269e-06 2.968378965e-07 2.534692612e-06 1.088351897e-08 2.115281677e-05 )
( 2.135019895e-05 -1.110504627e-06 4.003152867e-07 2.028144536e-06 1.179908082e-08 1.991096906e-05 )
( 2.128238157e-05 -1.102088618e-06 3.875674963e-07 2.021971568e-06 1.425240903e-08 1.990294732e-05 )
( 2.113944174e-05 -1.075371074e-06 3.566844953e-07 2.000176437e-06 1.682545303e-08 1.990329656e-05 )
( 2.12065388e-05 -1.083864959e-06 3.704936091e-07 2.005249371e-06 1.596672128e-08 1.990537567e-05 )
( 2.079153637e-05 -1.002739964e-06 3.021126531e-07 1.953931132e-06 1.900275315e-08 1.994288505e-05 )
( 2.088038673e-05 -1.018052444e-06 3.129621291e-07 1.960506552e-06 1.791807946e-08 1.992841317e-05 )
( 2.10543858e-05 -1.0531827e-06 3.39196248e-07 1.984499704e-06 1.786551351e-08 1.990962119e-05 )
( 2.097475772e-05 -1.042274675e-06 3.304370466e-07 1.978591172e-06 1.776995262e-08 1.991273894e-05 )
( 1.744837209e-05 -4.08335336e-06 -4.764071093e-07 1.005036756e-05 4.56748559e-08 2.536605462e-05 )
( 1.678046829e-05 -3.181331977e-06 -4.249114056e-07 9.111669897e-06 4.158454914e-08 2.6444377e-05 )
( 1.725513721e-05 -3.088606945e-06 -4.617329523e-07 8.736151358e-06 9.628031705e-08 2.598201172e-05 )
( 1.668510231e-05 -2.64336245e-06 -4.064213215e-07 8.380879081e-06 7.152928561e-08 2.681672959e-05 )
( 1.695541687e-05 -3.750258429e-06 -4.452322457e-07 9.800749467e-06 2.695251311e-08 2.612500793e-05 )
( 2.183145443e-05 -1.21263065e-06 4.819719379e-07 2.121715852e-06 1.3343322e-08 2.013012272e-05 )
( 2.187355494e-05 -1.222016749e-06 4.883947895e-07 2.125098263e-06 1.436518193e-08 2.015660539e-05 )
( 2.079802653e-05 -9.497307474e-07 4.248757364e-07 1.512195013e-06 8.730912882e-09 1.886849714e-05 )
( 2.074940494e-05 -9.39330107e-07 4.191251719e-07 1.501999236e-06 8.851680278e-09 1.883967343e-05 )
( 2.062104249e-05 -9.219893968e-07 4.055276577e-07 1.490212185e-06 9.019236913e-09 1.877917202e-05 )
( 2.067428613e-05 -9.320080494e-07 4.123285748e-07 1.501859515e-06 9.305006543e-09 1.88046688e-05 )
( 2.033954297e-05 -8.804626646e-07 3.593728479e-07 1.459003443e-06 8.132017726e-09 1.870698179e-05 )
( 2.039859828e-05 -8.916162528e-07 3.728983131e-07 1.472397457e-06 8.104157345e-09 1.871530549e-05 )
( 2.054051947e-05 -9.125424185e-07 3.962757091e-07 1.488617727e-06 8.573592503e-09 1.875026828e-05 )
( 2.047984526e-05 -8.997176337e-07 3.849774828e-07 1.475341378e-06 7.721313366e-09 1.873481961e-05 )
( 1.946113662e-05 -5.268770451e-07 2.23260912e-07 2.297338597e-06 7.102990196e-09 2.21721275e-05 )
( 1.931252336e-05 -4.569803025e-07 2.102587189e-07 2.263843271e-06 6.278516373e-09 2.232640509e-05 )
( 1.949011494e-05 -7.951066436e-07 1.771532254e-07 3.556447609e-06 -2.107484498e-08 2.374102405e-05 )
( 1.977881038e-05 -7.663405768e-07 2.134066222e-07 3.161088216e-06 -1.465118515e-08 2.325948844e-05 )
( 1.949380385e-05 -6.425348147e-07 1.999487154e-07 3.072837671e-06 -1.144182971e-08 2.340954961e-05 )
( 1.905907993e-05 -3.230031211e-07 1.919319743e-07 2.207124226e-06 4.736328663e-09 2.260309157e-05 )
( 1.939229878e-05 -4.999538987e-07 2.254747073e-07 2.642543222e-06 -2.169567859e-10 2.307079922e-05 )
( 1.919294664e-05 -3.975933396e-07 2.011093585e-07 2.239635023e-06 5.286262983e-09 2.244561801e-05 )
( 1.952963976e-05 -1.360366127e-06 4.541274734e-08 4.808955055e-06 -1.617314638e-08 2.394655166e-05 )
( 1.913791675e-05 -1.111410597e-06 4.283835153e-08 4.53245184e-06 -1.497199342e-08 2.433514055e-05 )
( 2.057192432e-05 -9.375998502e-07 2.788965219e-07 2.464086265e-06 1.185517196e-08 2.130419125e-05 )
( 2.04240132e-05 -8.62646516e-07 2.694417844e-07 2.416134066e-06 1.419222428e-08 2.138911441e-05 )
( 2.011610741e-05 -7.333395615e-07 2.511834509e-07 2.326414688e-06 1.378200576e-08 2.15020118e-05 )
( 2.029348434e-05 -8.231310744e-07 2.639661716e-07 2.395677711e-06 1.493136104e-08 2.142696394e-05 )
( 1.86234447e-05 -3.031805988e-07 1.754167869e-07 1.799846473e-06 1.141220629e-08 2.139344906e-05 )
( 1.898636765e-05 -4.050033908e-07 1.952948026e-07 1.902657687e-06 1.366637381e-08 2.133784074e-05 )
( 1.993593287e-05 -6.716767871e-07 2.406541171e-07 2.28689828e-06 1.26287798e-08 2.15140044e-05 )
( 1.961985436e-05 -5.624857522e-07 2.250453548e-07 2.165923661e-06 1.162463725e-08 2.151455192e-05 )
( 1.804876956e-05 -3.188691267e-07 1.215542511e-07 3.615606374e-06 -2.463064064e-08 2.53905273e-05 )
( 1.823662387e-05 -7.889083236e-07 -3.351778588e-08 4.545803677e-06 -1.563960517e-08 2.554379353e-05 )
( 1.864275509e-05 -6.940032904e-07 8.167199184e-08 4.02624255e-06 -2.213748651e-08 2.483951357e-05 )
( 1.790551869e-05 -5.824891218e-07 -1.782538739e-08 4.396510576e-06 -1.929798188e-08 2.59544031e-05 )
( 1.803570194e-05 -1.199489361e-06 -1.820762918e-07 5.468810741e-06 1.112087489e-08 2.569100616e-05 )
( 1.75349287e-05 -1.028184784e-06 -1.989050418e-07 5.453284757e-06 1.975639918e-08 2.639249396e-05 )
( 1.720030923e-05 -8.248601375e-07 -1.69278664e-07 5.312995654e-06 1.231816338e-08 2.688363202e-05 )
( 1.752587741e-05 -7.336080898e-07 -1.295675531e-07 4.923632332e-06 -1.267630223e-09 2.63275906e-05 )
( 1.622334821e-05 -1.170234441e-06 -2.976424298e-07 6.439403933e-06 5.759730115e-08 2.790109647e-05 )
( 1.669857193e-05 -1.087794203e-06 -2.776538395e-07 6.031705652e-06 5.969000227e-08 2.7276943e-05 )
( 1.648053512e-05 -9.319712717e-07 -2.557188168e-07 5.938744835e-06 5.168893225e-08 2.763852899e-05 )
( 1.644283657e-05 -6.871177902e-07 -2.101345586e-07 5.531846e-06 3.613396515e-08 2.772803055e-05 )
( 1.635050467e-05 -2.26012844e-07 -1.071911484e-07 4.862675269e-06 4.075699778e-09 2.811892955e-05 )
( 1.672694816e-05 -5.036626476e-07 -1.373846032e-07 5.064472589e-06 3.980415997e-09 2.755092282e-05 )
( 1.623894241e-05 -1.766551918e-06 -3.571045113e-07 7.24633901e-06 7.041972339e-08 2.766574835e-05 )
( 2.06832774e-05 -9.697131418e-07 2.874218694e-07 1.934751253e-06 1.959017837e-08 1.997412983e-05 )
( 2.058761675e-05 -9.504731224e-07 2.750773831e-07 1.926476671e-06 1.959689477e-08 1.999851156e-05 )
( 2.036066508e-05 -8.871459727e-07 2.484972867e-07 1.894059665e-06 2.155068479e-08 2.00811246e-05 )
( 2.046466579e-05 -9.114111208e-07 2.582399077e-07 1.903681891e-06 1.987642229e-08 2.004722046e-05 )
( 1.979299122e-05 -7.079624424e-07 2.113176265e-07 1.816849135e-06 2.280163258e-08 2.032174598e-05 )
( 1.993411934e-05 -7.466390457e-07 2.17683251e-07 1.830092515e-06 2.226592954e-08 2.026492439e-05 )
( 2.022296576e-05 -8.366915267e-07 2.347213979e-07 1.869376774e-06 2.329210602e-08 2.014277743e-05 )
( 2.009268428e-05 -8.039119166e-07 2.263158336e-07 1.858553333e-06 2.329431581e-08 2.01902476e-05 )
( 2.025308277e-05 -8.712660247e-07 3.438600515e-07 1.457024268e-06 9.4547703e-09 1.869582593e-05 )
( 2.018374653e-05 -8.586412719e-07 3.285760499e-07 1.444557142e-06 1.166936592e-08 1.869705375e-05 )
( 2.000860331e-05 -8.350180565e-07 2.927168907e-07 1.431386522e-06 1.8591507e-08 1.870337655e-05 )
( 2.008687989e-05 -8.495213137e-07 3.108433475e-07 1.443482233e-06 1.50479682e-08 1.869454354e-05 )
( 1.95884586e-05 -7.71398561e-07 2.322449575e-07 1.402613293e-06 2.47659262e-08 1.87580099e-05 )
( 1.96896508e-05 -7.934727364e-07 2.46189046e-07 1.416508894e-06 2.402917154e-08 1.873057045e-05 )
( 1.990146302e-05 -8.241370324e-07 2.76938863e-07 1.430372095e-06 2.059891813e-08 1.870488813e-05 )
( 1.980951856e-05 -8.068271313e-07 2.607312695e-07 1.418065153e-06 2.274588162e-08 1.871957647e-05 )
( 1.570231507e-05 -1.757588166e-06 -3.382557452e-07 7.646501217e-06 3.668398207e-08 2.848453732e-05 )
( 1.598188828e-05 -2.542611583e-06 -3.752407736e-07 8.56047609e-06 1.353832957e-08 2.773486449e-05 )
( 1.551356945e-05 -1.194937681e-06 -3.049556483e-07 6.813844266e-06 4.099844375e-08 2.889601092e-05 )
( 1.621190131e-05 -3.157194669e-06 -3.980162546e-07 9.344661521e-06 -9.524532274e-09 2.724308797e-05 )
( 2.086753375e-05 -9.607476841e-07 4.322011762e-07 1.511241976e-06 9.038291005e-09 1.890273234e-05 )
( 2.091023634e-05 -9.73402507e-07 4.382109466e-07 1.520723458e-06 1.039263253e-08 1.8930019e-05 )
( 1.91299041e-05 -7.390205496e-07 3.708506142e-07 1.02368881e-06 6.887120652e-09 1.727134804e-05 )
( 1.905656973e-05 -7.329593927e-07 3.674253719e-07 1.020652803e-06 7.525232881e-09 1.72388427e-05 )
( 1.889868508e-05 -7.162745419e-07 3.572166065e-07 1.014471536e-06 7.219618681e-09 1.718282329e-05 )
( 1.897746188e-05 -7.238612625e-07 3.621230178e-07 1.01915407e-06 8.052059464e-09 1.720966065e-05 )
( 1.855161099e-05 -6.762750218e-07 3.163664815e-07 9.944812973e-07 6.042056633e-09 1.712386984e-05 )
( 1.863887519e-05 -6.847462828e-07 3.277499161e-07 1.000832185e-06 5.973629591e-09 1.713244092e-05 )
( 1.881333083e-05 -7.048269026e-07 3.498666388e-07 1.010982146e-06 6.573392497e-09 1.716050974e-05 )
( 1.872639587e-05 -6.955374374e-07 3.400911339e-07 1.005051786e-06 6.036927847e-09 1.714474274e-05 )
( 1.844182225e-05 -2.093062506e-07 1.55939091e-07 1.753892093e-06 9.85642945e-09 2.158253301e-05 )
( 1.831943155e-05 -1.395935101e-07 1.412942083e-07 1.737497541e-06 9.331022177e-09 2.175052032e-05 )
( 1.907606202e-05 -5.912114034e-07 1.686686062e-07 3.400557034e-06 -1.995648979e-08 2.406913518e-05 )
( 1.8922452e-05 -3.465681573e-07 2.035907016e-07 2.745439133e-06 -1.307072761e-08 2.368917012e-05 )
( 1.918625276e-05 -4.941332463e-07 1.923420001e-07 2.913358003e-06 -1.526468374e-08 2.35525149e-05 )
( 1.899557719e-05 -3.379251723e-07 1.971574477e-07 2.522712293e-06 1.011908335e-10 2.323966328e-05 )
( 1.883539335e-05 -2.320558963e-07 1.828249765e-07 2.17533352e-06 3.921377445e-09 2.280252374e-05 )
( 1.804242675e-05 -7.136847557e-09 1.249193105e-07 1.697887342e-06 9.405780155e-09 2.208158367e-05 )
( 1.821412479e-05 -7.561706639e-08 1.316265639e-07 1.714934683e-06 8.985659328e-09 2.191615567e-05 )
( 1.846542909e-05 -2.907098633e-07 1.716290257e-07 3.165053386e-06 -1.931932836e-08 2.457187657e-05 )