/*--------------------------------*- C++ -*----------------------------------*\
  =========                 |
  \\      /  F ield         | OpenFOAM: The Open Source CFD Toolbox
   \\    /   O peration     | Website:  https://openfoam.org
    \\  /    A nd           | Version:  8
     \\/     M anipulation  |
\*---------------------------------------------------------------------------*/






FoamFile
{
    version     2.0;
    format      ascii;
    class       volVectorField;
    location    "0";
    object      UDDES;
}
// * * * * * * * * * * * * * * * * * * * * * * * * * * * * * * * * * * * * * //

dimensions      [0 1 -1 0 0 0 0];


internalField   nonuniform List<vector> 
21771
(
( 0.01378882676 0.0009245031979 -1.563723345e-06 )
( 0.01375989895 0.001148888725 3.727167041e-06 )
( 0.01332444884 0.0008932155324 2.286883864e-05 )
( 0.01328621339 0.001111217192 2.969783782e-05 )
( 0.01372560114 0.001420409186 1.296468508e-05 )
( 0.01278765593 0.0008396066842 5.541283099e-05 )
( 0.01272533741 0.001047133701 6.286283315e-05 )
( 0.01321653649 0.001372296945 4.182736666e-05 )
( 0.01366943773 0.001721917186 2.416310417e-05 )
( 0.01215571351 0.0007729745121 7.27051447e-05 )
( 0.01265331917 0.001299233758 7.121146336e-05 )
( 0.01199998707 0.0009563480271 7.788562652e-05 )
( 0.01309205219 0.001660278882 5.551451977e-05 )
( 0.01362870727 0.001947651152 3.255579213e-05 )
( 0.01174848154 0.0006993351853 6.672229938e-05 )
( 0.01167991199 0.0007673363434 6.942438631e-05 )
( 0.01255755872 0.001577732968 7.947825361e-05 )
( 0.01184055582 0.001181071508 8.228022489e-05 )
( 0.01154286508 0.0008606046904 7.083374658e-05 )
( 0.01138359495 0.0009286268614 6.944246707e-05 )
( 0.01301946118 0.001898062881 6.60327205e-05 )
( 0.01354268938 0.002241659211 4.646423622e-05 )
( 0.01098005101 0.0005918589304 3.226791523e-05 )
( 0.01089797448 0.0006622434594 3.558398384e-05 )
( 0.0117271645 0.001429480151 8.523887664e-05 )
( 0.01240625419 0.001824513311 8.750385314e-05 )
( 0.01123851817 0.001041554147 6.91798632e-05 )
( 0.01114814449 0.001118255896 7.021751662e-05 )
( 0.01079592388 0.0007397914305 3.77103861e-05 )
( 0.01066969708 0.0008217711584 3.756434307e-05 )
( 0.01289020479 0.002232159954 7.71911582e-05 )
( 0.01355809439 0.002722330391 6.296351057e-05 )
( 0.0105129173 0.0005144242314 3.674043001e-06 )
( 0.01046905294 0.0005431913305 5.34801211e-06 )
( 0.01037055068 0.0006078439765 8.19908837e-06 )
( 0.01041994244 0.000574242149 7.333386748e-06 )
( 0.01149775926 0.001570625464 8.681092731e-05 )
( 0.01108155865 0.00122373004 7.095839101e-05 )
( 0.01103882957 0.001291824039 7.183854905e-05 )
( 0.01193883549 0.001681636903 9.22519539e-05 )
( 0.01192494854 0.001821724116 9.326019062e-05 )
( 0.01214422658 0.002122129314 9.154606232e-05 )
( 0.01056591794 0.0009170304984 4.107939822e-05 )
( 0.01037521102 0.001004289603 4.170284592e-05 )
( 0.01031454373 0.0006445793551 9.153629435e-06 )
( 0.01025973819 0.0006830068305 1.007365972e-05 )
( 0.01013810188 0.0007649489562 1.35045475e-05 )
( 0.01019721385 0.0007237821701 1.153734593e-05 )
( 0.01281474717 0.002693716902 8.676716243e-05 )
( 0.01358676422 0.003102769842 7.075951726e-05 )
( 0.01055860054 0.0004863453214 1.620621333e-06 )
( 0.009879725054 0.0004397996818 -3.400269634e-05 )
( 0.009830235504 0.0004596725339 -3.20565523e-05 )
( 0.009709772654 0.0005150266807 -2.879880412e-05 )
( 0.009766532108 0.0004907865077 -3.041503442e-05 )
( 0.01093492098 0.001425645198 7.296104013e-05 )
( 0.01142623555 0.001728664385 8.628563955e-05 )
( 0.01027202606 0.001080066897 4.585773786e-05 )
( 0.01010600291 0.001134531107 4.582473775e-05 )
( 0.01174184121 0.001960066846 9.335762297e-05 )
( 0.01145871729 0.002071156865 8.711240662e-05 )
( 0.01192993671 0.002575901104 8.95588164e-05 )
( 0.01008188352 0.0008085712325 1.581995821e-05 )
( 0.009925400838 0.0008288671961 1.487276677e-05 )
( 0.009675975889 0.0008940247935 1.797034201e-05 )
( 0.009813506156 0.0008674357086 1.73713488e-05 )
( 0.009640571661 0.0005510802148 -2.745297024e-05 )
( 0.009578623809 0.0005780064384 -2.529551057e-05 )
( 0.00943494495 0.0006465336774 -1.805720785e-05 )
( 0.009501255117 0.0006189269479 -2.181081436e-05 )
( 0.01279403549 0.003069651546 8.7942135e-05 )
( 0.01364006288 0.003608992789 7.65157456e-05 )
( 0.009939501062 0.0004110853188 -3.610964268e-05 )
( 0.009387917817 0.0003786901943 -5.727925964e-05 )
( 0.009364167228 0.0003867364721 -5.646182035e-05 )
( 0.009300346486 0.000411524321 -5.419961599e-05 )
( 0.009324581362 0.0004032145953 -5.501959095e-05 )
( 0.009163213894 0.0004606653238 -5.005553976e-05 )
( 0.009189529344 0.0004509775317 -5.074329238e-05 )
( 0.009260716848 0.0004226555757 -5.301002238e-05 )
( 0.00923364982 0.0004322353634 -5.229015369e-05 )
( 0.009921977296 0.001236096839 4.932334195e-05 )
( 0.01064829063 0.001555821858 7.110872684e-05 )
( 0.01112856623 0.001845584018 8.239646559e-05 )
( 0.009650867432 0.0009563409258 2.373454299e-05 )
( 0.009525192901 0.0009795569349 2.421580757e-05 )
( 0.009228441864 0.000998315867 2.281598427e-05 )
( 0.009420951828 0.0009981305338 2.526954631e-05 )
( 0.0108084362 0.002002744237 7.706075121e-05 )
( 0.01129898801 0.002329474548 8.429862646e-05 )
( 0.0112318052 0.002516116947 8.041031106e-05 )
( 0.01181167923 0.002994451439 8.159448043e-05 )
( 0.009355111979 0.0006918670842 -1.320449064e-05 )
( 0.009284901433 0.0007226442685 -8.246763173e-06 )
( 0.0091331359 0.0007982181269 1.600212499e-06 )
( 0.009122873656 0.0007511737058 -5.874022463e-06 )
( 0.009121002629 0.0004736420524 -4.876223466e-05 )
( 0.009089756757 0.0004847936216 -4.746939885e-05 )
( 0.009011632763 0.0005161128938 -4.351321331e-05 )
( 0.009041397832 0.000505431788 -4.51561209e-05 )
( 0.008847999386 0.0005768130068 -3.265572013e-05 )
( 0.008880250156 0.0005648397491 -3.488274524e-05 )
( 0.008962689899 0.0005316836759 -4.031736898e-05 )
( 0.008931206539 0.0005430066376 -3.801473213e-05 )
( 0.01270983368 0.003535432275 8.706915833e-05 )
( 0.01371454541 0.004084944725 7.520795043e-05 )
( 0.009424754418 0.0003690465237 -5.850966045e-05 )
( 0.009447147138 0.0003614141315 -5.929981853e-05 )
( 0.008707515895 0.0003198348859 -7.730945799e-05 )
( 0.008675620891 0.0003302394471 -7.630209439e-05 )
( 0.008602496237 0.0003488311195 -7.355821435e-05 )
( 0.008635380305 0.0003380509152 -7.492458099e-05 )
( 0.008445285261 0.0003891717352 -6.769791071e-05 )
( 0.008480706252 0.0003774873621 -6.931649114e-05 )
( 0.008561775088 0.0003562458151 -7.24275742e-05 )
( 0.008525801823 0.0003681833041 -7.094445755e-05 )
( 0.008968064561 0.00103659858 2.451830187e-05 )
( 0.008866096847 0.001066210214 2.6675154e-05 )
( 0.009608704597 0.001287688036 4.920808715e-05 )
( 0.01021682657 0.001412057434 6.156762538e-05 )
( 0.01037203893 0.00169727765 7.09438682e-05 )
( 0.0101368539 0.001493963529 6.428305642e-05 )
( 0.008950441144 0.000823520706 2.439246828e-06 )
( 0.008956223726 0.0008818600327 9.897191376e-06 )
( 0.008302829228 0.0008728486719 8.145451829e-06 )
( 0.008782519959 0.0008953469223 1.009772222e-05 )
( 0.00986093469 0.001829786692 6.481644232e-05 )
( 0.01060842536 0.002198342001 7.300973812e-05 )
( 0.01049558725 0.002364286454 6.930248492e-05 )
( 0.01113350783 0.002734743292 7.199488755e-05 )
( 0.01102708932 0.002916308818 6.244541146e-05 )
( 0.0120798694 0.003351785475 8.4938707e-05 )
( 0.01156274136 0.00326693058 7.089757855e-05 )
( 0.008797088638 0.0005942235584 -2.905614019e-05 )
( 0.008762034588 0.0006069451338 -2.661996405e-05 )
( 0.008670414798 0.0006437228294 -2.071667222e-05 )
( 0.008705578744 0.0006309087039 -2.316888276e-05 )
( 0.008512576111 0.0007019377081 -1.074385546e-05 )
( 0.008539408445 0.0006925587659 -1.197514848e-05 )
( 0.008614409715 0.0006623845547 -1.714333848e-05 )
( 0.008592166007 0.0006699537626 -1.502529631e-05 )
( 0.008400861174 0.0003978860332 -6.603668589e-05 )
( 0.008359711617 0.0004114031326 -6.325896538e-05 )
( 0.008268742822 0.0004356607387 -5.733210492e-05 )
( 0.008309664205 0.0004220446572 -6.026916526e-05 )
( 0.008079124615 0.0004869996628 -4.506379628e-05 )
( 0.008123464882 0.0004719943099 -4.81663119e-05 )
( 0.008218402043 0.0004461560748 -5.395857443e-05 )
( 0.008175596595 0.0004606268194 -5.126862379e-05 )
( 0.01271498948 0.004082524218 7.484435628e-05 )
( 0.01206934359 0.003574896138 7.895302406e-05 )
( 0.01372607891 0.004599715583 7.11040193e-05 )
( 0.008745592088 0.0003134056169 -7.829802053e-05 )
( 0.008775820956 0.0003035691334 -7.919534983e-05 )
( 0.007976574823 0.0002649228263 -8.919041284e-05 )
( 0.007941929623 0.000269021024 -8.817159687e-05 )
( 0.007859449834 0.0002841897949 -8.605810581e-05 )
( 0.00789585989 0.0002797422349 -8.703124331e-05 )
( 0.007680948824 0.0003166096285 -7.895654562e-05 )
( 0.007721718401 0.0003116127336 -8.100026753e-05 )
( 0.007811888587 0.0002950084163 -8.443862316e-05 )
( 0.007773003075 0.0002998618002 -8.321888163e-05 )
( 0.008005002514 0.0008832521271 8.031040124e-06 )
( 0.008621304296 0.001108966186 2.681057413e-05 )
( 0.007800613064 0.0009110745741 1.059529041e-05 )
( 0.00938504003 0.001348386984 5.066371523e-05 )
( 0.009973721579 0.001567491796 6.454427057e-05 )
( 0.009773585945 0.001617611619 6.383340224e-05 )
( 0.008442448452 0.0007256309036 -8.226053069e-06 )
( 0.008414353244 0.000735222362 -6.713411494e-06 )
( 0.008301077411 0.00077410019 -2.844915571e-06 )
( 0.008332783356 0.0007647180464 -3.575340997e-06 )
( 0.007406976074 0.0007478912012 -5.561798389e-06 )
( 0.007632008288 0.0007577523356 -4.01372472e-06 )
( 0.008206782863 0.000797153567 4.067328518e-08 )
( 0.007996322587 0.0007849716931 -1.132671514e-06 )
( 0.009200116619 0.001724489266 5.463866546e-05 )
( 0.009416294284 0.001682911301 5.907967352e-05 )
( 0.009820437059 0.00202985038 6.479267176e-05 )
( 0.01029072423 0.002556689316 5.697012966e-05 )
( 0.009986971505 0.002275880426 6.231192674e-05 )
( 0.01010137424 0.002207986079 6.737250078e-05 )
( 0.01075108163 0.003130123252 4.945877663e-05 )
( 0.01011932548 0.002799576148 4.322676614e-05 )
( 0.01141509134 0.003511513351 5.899028838e-05 )
( 0.008025798015 0.0004989737645 -4.151328903e-05 )
( 0.007978145964 0.0005149060744 -3.830126298e-05 )
( 0.007873232476 0.0005434623454 -3.218949132e-05 )
( 0.007921005599 0.0005274360301 -3.474656842e-05 )
( 0.007650205866 0.0006032011588 -2.127704829e-05 )
( 0.007717302535 0.00058098929 -2.351845978e-05 )
( 0.00781478174 0.0005563615123 -2.894970203e-05 )
( 0.007764875423 0.0005726639065 -2.611741365e-05 )
( 0.007628807798 0.0003282732505 -7.607800944e-05 )
( 0.007584350649 0.0003342567652 -7.359717711e-05 )
( 0.007483663037 0.0003534225398 -6.74472758e-05 )
( 0.007528078742 0.0003475444973 -7.02631587e-05 )
( 0.007268037647 0.0003962226911 -5.427787983e-05 )
( 0.00731645152 0.0003890895168 -5.698403038e-05 )
( 0.00742438715 0.0003675403423 -6.363016291e-05 )
( 0.007377649192 0.0003741049441 -6.060728992e-05 )
( 0.01305818185 0.00446513854 7.387818187e-05 )
( 0.01253467239 0.00443002861 6.578722969e-05 )
( 0.01202059072 0.003864328843 6.701948587e-05 )
( 0.01196079701 0.00408742018 5.778692139e-05 )
( 0.01309687551 0.004719787277 6.833989028e-05 )
( 0.008020125329 0.0002551094803 -9.020457219e-05 )
( 0.008053105325 0.0002513418731 -9.089177183e-05 )
( 0.007226133719 0.0002110131318 -9.089785453e-05 )
( 0.007184890099 0.0002192597312 -8.978386177e-05 )
( 0.007094682194 0.0002314877929 -8.740018529e-05 )
( 0.007138217799 0.0002228382218 -8.857782814e-05 )
( 0.006898799911 0.0002570934594 -8.036656072e-05 )
( 0.006947593298 0.0002478923707 -8.281652845e-05 )
( 0.007045548875 0.0002351102157 -8.601137961e-05 )
( 0.006999731995 0.0002439574746 -8.459600213e-05 )
( 0.007195198443 0.00075596018 -5.495517598e-06 )
( 0.007145156618 0.0007750494988 -4.187147169e-06 )
( 0.008378769271 0.001161943539 2.914485958e-05 )
( 0.008111732081 0.001006159466 1.737420462e-05 )
( 0.007970386185 0.001024008379 1.751520722e-05 )
( 0.007056803908 0.0008074172656 -1.346206659e-06 )
( 0.007577283308 0.0009152200655 1.168696053e-05 )
( 0.007105445955 0.0007884649094 -2.458785048e-06 )
( 0.009273162112 0.001411816222 5.278070239e-05 )
( 0.009078567848 0.001483914442 5.212973338e-05 )
( 0.007600890938 0.0006111749099 -1.9816227e-05 )
( 0.007523307111 0.0006344027934 -1.705688373e-05 )
( 0.0073659271 0.0006615581806 -1.414753297e-05 )
( 0.007465063129 0.0006416245596 -1.586357212e-05 )
( 0.006487615407 0.0006367426249 -1.614807843e-05 )
( 0.006678725593 0.0006338551757 -1.647906902e-05 )
( 0.00728178164 0.0006634958554 -1.357890869e-05 )
( 0.007086796686 0.000667023065 -1.332721695e-05 )
( 0.0083740931 0.001559385215 3.651454244e-05 )
( 0.009089497849 0.00182212831 5.140908252e-05 )
( 0.008718479425 0.001524425112 4.518625792e-05 )
( 0.008987535723 0.001885462087 4.726655243e-05 )
( 0.0096970452 0.002127569867 6.102308544e-05 )
( 0.009732229635 0.002385376953 4.97945548e-05 )
( 0.009658968076 0.002481381875 4.389567403e-05 )
( 0.009389160201 0.002194412285 5.129785859e-05 )
( 0.01061018463 0.003413764294 3.72018003e-05 )
( 0.0102545321 0.00299272337 4.050669304e-05 )
( 0.01022457331 0.003081638599 3.723800182e-05 )
( 0.009943726473 0.002920497907 3.519763777e-05 )
( 0.009434569627 0.002686919877 3.270282468e-05 )
( 0.009541410953 0.002608196577 3.685587217e-05 )
( 0.01120620314 0.003774690442 4.372715193e-05 )
( 0.007205200382 0.0004116094788 -5.037915253e-05 )
( 0.007154864259 0.0004189157917 -4.761007222e-05 )
( 0.00703769736 0.0004423905339 -4.146756692e-05 )
( 0.007088745479 0.0004351393145 -4.400946636e-05 )
( 0.006785038859 0.0004917283077 -3.196866601e-05 )
( 0.006842857227 0.0004837011511 -3.3614313e-05 )
( 0.006968995556 0.0004588418815 -3.845522224e-05 )
( 0.006914680824 0.0004667023895 -3.622624718e-05 )
( 0.006843957584 0.0002612576936 -7.762013411e-05 )
( 0.006792754401 0.0002711706911 -7.493748126e-05 )
( 0.006682080682 0.000286772789 -6.910319644e-05 )
( 0.006735535339 0.0002760506177 -7.201885455e-05 )
( 0.006445643026 0.0003216342011 -5.59386026e-05 )
( 0.006503453478 0.0003097232257 -5.898454037e-05 )
( 0.006621877663 0.0002921807172 -6.554755237e-05 )
( 0.006565802731 0.0003035519039 -6.237781054e-05 )
( 0.01175814308 0.004401579034 4.655104931e-05 )
( 0.01244606171 0.004726361483 5.74991318e-05 )
( 0.0111377174 0.004065223038 3.656975605e-05 )
( 0.01310673822 0.005050508305 6.061864769e-05 )
( 0.007270570379 0.0002078699472 -9.173597937e-05 )
( 0.007309700362 0.0002000767563 -9.266364941e-05 )
( 0.006369874813 0.0001646489254 -8.472939226e-05 )
( 0.006323293317 0.0001692989608 -8.335588063e-05 )
( 0.006226412952 0.0001786836801 -8.095702651e-05 )
( 0.006275459193 0.0001738416613 -8.24018789e-05 )
( 0.006016745698 0.0001979826629 -7.486363029e-05 )
( 0.006071408745 0.0001928653946 -7.704729796e-05 )
( 0.0061759823 0.0001832155103 -7.972696767e-05 )
( 0.006124474108 0.0001881239295 -7.851191913e-05 )
( 0.006423762999 0.0006569447578 -1.431026067e-05 )
( 0.006382071879 0.0006700796657 -1.233310468e-05 )
( 0.008222522214 0.001217147568 3.030797052e-05 )
( 0.007614480332 0.001040558447 1.619995419e-05 )
( 0.007787024137 0.001037025242 1.581773176e-05 )
( 0.007370026316 0.0009311719332 9.034409231e-06 )
( 0.006990948692 0.0008326551761 2.628144102e-07 )
( 0.006295247935 0.0007024693768 -9.4466468e-06 )
( 0.006349029485 0.0006878481945 -1.09878174e-05 )
( 0.007988657802 0.001288971282 2.87285493e-05 )
( 0.006708730012 0.0005092291976 -3.027849743e-05 )
( 0.00664539123 0.0005173722748 -2.875311839e-05 )
( 0.006465736777 0.0005387398996 -2.660058271e-05 )
( 0.006553790998 0.0005340412608 -2.708690226e-05 )
( 0.005580299534 0.0005242434563 -2.372895869e-05 )
( 0.005813809112 0.0005343343364 -2.559552377e-05 )
( 0.006312625948 0.0005461331457 -2.545748976e-05 )
( 0.006131915376 0.0005410574377 -2.510234117e-05 )
( 0.007698284462 0.001438992447 2.137436422e-05 )
( 0.007780854125 0.001407957869 2.315926213e-05 )
( 0.008225662634 0.001627823454 3.252916213e-05 )
( 0.007700483315 0.001334666158 2.129777567e-05 )
( 0.008866822347 0.00197674823 4.139189332e-05 )
( 0.008070929907 0.001702204579 2.65702929e-05 )
( 0.009211262688 0.002268611686 4.22088815e-05 )
( 0.009006211534 0.002359461039 3.334863504e-05 )
( 0.008580295369 0.002017928986 3.361896961e-05 )
( 0.01073365379 0.003651443403 3.307896623e-05 )
( 0.01040569413 0.003578188829 2.915964433e-05 )
( 0.009983483702 0.003331053536 2.673845302e-05 )
( 0.01009119023 0.003229131456 3.008415479e-05 )
( 0.009790190496 0.003016340081 3.133687278e-05 )
( 0.009176792577 0.00276988023 2.677409248e-05 )
( 0.008503473364 0.002500955714 2.161051634e-05 )
( 0.008744531311 0.002421251265 2.687376582e-05 )
( 0.01068181172 0.003779211547 2.82460951e-05 )
( 0.006382110063 0.0003281120444 -5.313029033e-05 )
( 0.006322108209 0.0003405291936 -5.012865222e-05 )
( 0.006193741225 0.0003601711651 -4.467549297e-05 )
( 0.0062559871 0.0003473832039 -4.722483936e-05 )
( 0.005916721653 0.000400810648 -3.738556552e-05 )
( 0.00598544674 0.0003877092386 -3.87369837e-05 )
( 0.006124400999 0.0003673446481 -4.257359615e-05 )
( 0.006058721803 0.0003804012085 -4.049424751e-05 )
( 0.005960690323 0.0002030480391 -7.251086936e-05 )
( 0.005903317593 0.0002086924942 -6.98602671e-05 )
( 0.005784614012 0.0002207486395 -6.434027455e-05 )
( 0.005844839849 0.0002144758473 -6.744281563e-05 )
( 0.005532217678 0.0002481383854 -5.330671047e-05 )
( 0.005596328061 0.0002406963322 -5.589777356e-05 )
( 0.005723284092 0.0002269886318 -6.170825509e-05 )
( 0.005660462659 0.000233857907 -5.87078066e-05 )
( 0.01169156004 0.004717233591 3.988152457e-05 )
( 0.01122447848 0.004463952966 3.199092316e-05 )
( 0.01129004825 0.004315577913 3.617408584e-05 )
( 0.01229937002 0.005037764553 4.738738062e-05 )
( 0.01093793847 0.004271326121 3.123470378e-05 )
( 0.01053882577 0.004005769733 2.578627937e-05 )
( 0.01062344573 0.00391244702 2.596199556e-05 )
( 0.006415245123 0.0001604132704 -8.538933616e-05 )
( 0.006459455471 0.0001560280798 -8.600157889e-05 )
( 0.005409633741 0.000120796969 -7.243432628e-05 )
( 0.005361172371 0.0001241601567 -7.167836884e-05 )
( 0.005260549486 0.0001309494255 -6.939002924e-05 )
( 0.005311607383 0.000127529609 -7.042825018e-05 )
( 0.005043423269 0.0001448124385 -6.40473736e-05 )
( 0.005099897273 0.0001411832345 -6.592128921e-05 )
( 0.005208324175 0.0001342996839 -6.834341912e-05 )
( 0.005154867191 0.000137744064 -6.735345232e-05 )
( 0.00555398874 0.0005410187878 -2.129713539e-05 )
( 0.005542444065 0.0005628544604 -1.87527985e-05 )
( 0.007489552721 0.001078293775 1.678358785e-05 )
( 0.007388531696 0.001101316302 1.568221705e-05 )
( 0.006858370267 0.0009414866799 2.159159749e-06 )
( 0.007016834337 0.0009117681766 4.577099389e-06 )
( 0.00673706457 0.0008341217763 1.206319808e-07 )
( 0.006166934967 0.0007199890679 -9.001114449e-06 )
( 0.005455155391 0.0006017746637 -1.618126953e-05 )
( 0.005512741394 0.0005819501239 -1.720165528e-05 )
( 0.007258067839 0.001185006695 1.291770423e-05 )
( 0.007248678245 0.001134235878 1.390519628e-05 )
( 0.005842015147 0.00040857165 -3.613996887e-05 )
( 0.005773970857 0.0004227854079 -3.487350477e-05 )
( 0.005594678223 0.0004419462057 -3.244209074e-05 )
( 0.005688960664 0.0004302015004 -3.367222598e-05 )
( 0.00453419704 0.0004172976187 -2.713875074e-05 )
( 0.004948443267 0.0004483049852 -2.989368659e-05 )
( 0.005457000807 0.0004459448101 -3.144623042e-05 )
( 0.005285307299 0.0004594096099 -3.057246431e-05 )
( 0.007099309936 0.001322437427 7.316479241e-06 )
( 0.007586044259 0.001472912729 1.892429646e-05 )
( 0.007327801082 0.00131976523 1.247563887e-05 )
( 0.007499820087 0.001501335297 1.667339711e-05 )
( 0.0072048367 0.001216322649 1.119849185e-05 )
( 0.007132878527 0.001239363453 9.818582839e-06 )
( 0.007855509408 0.001765179215 1.875535054e-05 )
( 0.007417134009 0.001598407282 1.088140561e-05 )
( 0.007411567494 0.0015387577 1.310861717e-05 )
( 0.008354968391 0.002086067572 2.577631494e-05 )
( 0.008114922792 0.002166497055 1.782416075e-05 )
( 0.007852040231 0.001890303334 1.756591519e-05 )
( 0.007946804166 0.001859331736 1.994177001e-05 )
( 0.009850670584 0.003467252944 2.515108281e-05 )
( 0.0102606453 0.003718894441 2.445487553e-05 )
( 0.009243224747 0.003194120945 2.331002906e-05 )
( 0.0095907012 0.003111817874 2.659950223e-05 )
( 0.009016694501 0.002862144262 2.453244997e-05 )
( 0.008619460277 0.002607207978 2.124412458e-05 )
( 0.008521744981 0.002647175454 2.000316454e-05 )
( 0.007985356264 0.002406582236 1.513555344e-05 )
( 0.008199400268 0.002512699226 1.484703535e-05 )
( 0.007982065901 0.002338431077 1.639873517e-05 )
( 0.008182358928 0.002263362519 1.882401375e-05 )
( 0.008096670732 0.002303084824 1.819358295e-05 )
( 0.005467268638 0.0002555270621 -5.09350939e-05 )
( 0.005401044153 0.0002633811382 -4.855374209e-05 )
( 0.005264377221 0.0002794769825 -4.440200064e-05 )
( 0.00533351209 0.000271244644 -4.630090916e-05 )
( 0.004966972861 0.00031180121 -3.909164661e-05 )
( 0.005044136662 0.0003040572337 -4.012797581e-05 )
( 0.005192924291 0.0002876665967 -4.271596845e-05 )
( 0.005119696259 0.0002959714911 -4.122565588e-05 )
( 0.00498553412 0.0001485588728 -6.218226918e-05 )
( 0.00492645707 0.0001526212291 -6.041551751e-05 )
( 0.004803856369 0.0001614266657 -5.612548921e-05 )
( 0.004865799565 0.0001568997686 -5.815196346e-05 )
( 0.004542289302 0.000181778305 -4.720610013e-05 )
( 0.004608828574 0.0001762600732 -4.924010136e-05 )
( 0.004739920143 0.0001660317357 -5.373868771e-05 )
( 0.004674952012 0.000171045569 -5.143195813e-05 )
( 0.01183650829 0.004963201005 3.932018444e-05 )
( 0.0115387626 0.004924639594 3.592414578e-05 )
( 0.01111998968 0.004688554909 2.881182445e-05 )
( 0.01120123733 0.004592007957 2.933595897e-05 )
( 0.01080222894 0.00443024328 2.706558735e-05 )
( 0.01180984639 0.005094521679 3.566031955e-05 )
( 0.01043698844 0.004161140416 2.560849862e-05 )
( 0.009830561467 0.003910995089 2.247610428e-05 )
( 0.01010184549 0.003804846201 2.330733696e-05 )
( 0.005456770305 0.0001175775833 -7.305679901e-05 )
( 0.005502920598 0.000114509523 -7.406166696e-05 )
( 0.00442361692 8.378864732e-05 -5.847024295e-05 )
( 0.004375629127 8.608889038e-05 -5.745867384e-05 )
( 0.00427611731 9.078202129e-05 -5.606737614e-05 )
( 0.004326564725 8.842993702e-05 -5.698067253e-05 )
( 0.004061772488 0.0001003590296 -5.14444182e-05 )
( 0.004117493983 9.785407747e-05 -5.313392103e-05 )
( 0.004224547185 9.308740118e-05 -5.541332575e-05 )
( 0.004171625245 9.546834917e-05 -5.457691805e-05 )
( 0.00461282488 0.0004328820505 -2.489407234e-05 )
( 0.004617501516 0.0004544622498 -2.270375626e-05 )
( 0.006788109429 0.000961308775 2.134896704e-06 )
( 0.006680097431 0.0009840740822 1.598868039e-06 )
( 0.006524031051 0.000888263341 -2.328908749e-06 )
( 0.006589257158 0.000851607474 -2.531678547e-06 )
( 0.005986890756 0.0007353952969 -9.049577784e-06 )
( 0.005366027355 0.0006230322761 -1.535690535e-05 )
( 0.004560461268 0.0004968919093 -2.015969585e-05 )
( 0.00459769275 0.000476893154 -2.12667801e-05 )
( 0.006591122132 0.001071079285 7.408033298e-07 )
( 0.006606972776 0.001021544798 1.143422764e-06 )
( 0.004896061029 0.0003207634145 -3.832834409e-05 )
( 0.004831288941 0.0003309498134 -3.73649309e-05 )
( 0.004672006704 0.0003511859395 -3.462572931e-05 )
( 0.004760181531 0.0003415694227 -3.598727199e-05 )
( 0.004329311196 0.0003986652882 -2.930586925e-05 )
( 0.003603308694 0.0003230283037 -2.557710286e-05 )
( 0.004280520603 0.0003856069525 -3.028923129e-05 )
( 0.004555602092 0.0003612959408 -3.317571827e-05 )
( 0.004411439411 0.0003692769096 -3.167372051e-05 )
( 0.00676612556 0.001263618236 1.821055548e-06 )
( 0.006971600931 0.001355978893 4.575068942e-06 )
( 0.00689912308 0.001247413806 4.208827704e-06 )
( 0.006884347647 0.001377184293 2.588834832e-06 )
( 0.006579671055 0.001111195423 1.129245447e-06 )
( 0.006497615017 0.001130909659 -2.219610451e-08 )
( 0.00736823678 0.001638643444 8.298259672e-06 )
( 0.007463153452 0.001755636185 9.319989658e-06 )
( 0.007296501659 0.001662005554 7.000960977e-06 )
( 0.006809452083 0.001482732245 -4.635116397e-07 )
( 0.006829519756 0.001425033784 8.507884104e-07 )
( 0.007772393059 0.001929797931 1.57771301e-05 )
( 0.007706476841 0.001968706027 1.440491815e-05 )
( 0.007598458324 0.002068909584 8.381370208e-06 )
( 0.007672281936 0.002034272067 1.038864866e-05 )
( 0.007754598744 0.002167267259 1.178030016e-05 )
( 0.00726191327 0.001768491813 4.739349151e-06 )
( 0.009076614864 0.003317948198 2.176738417e-05 )
( 0.009559563361 0.003563307924 2.223085539e-05 )
( 0.008694721386 0.003101345617 2.002690417e-05 )
( 0.008832102641 0.003066900652 2.268384196e-05 )
( 0.00878603477 0.002961898455 2.179769763e-05 )
( 0.008409650065 0.002784472192 1.791950854e-05 )
( 0.008417951874 0.002712927293 1.86270463e-05 )
( 0.007978430018 0.002526946599 1.162637727e-05 )
( 0.007835743017 0.002429762855 1.082735071e-05 )
( 0.007445756346 0.002297868486 7.097096386e-06 )
( 0.007469492964 0.002242578426 7.671591447e-06 )
( 0.007541655563 0.002180462005 8.455658644e-06 )
( 0.004476118833 0.0001876948954 -4.558392538e-05 )
( 0.004408434965 0.0001937540947 -4.38137904e-05 )
( 0.004267744254 0.000206564684 -4.094000542e-05 )
( 0.004339208826 0.0002001022949 -4.238203837e-05 )
( 0.003959953785 0.000231302969 -3.697408101e-05 )
( 0.004040375818 0.000225910946 -3.766314694e-05 )
( 0.004194277339 0.0002131802321 -3.972463674e-05 )
( 0.004118365236 0.0002195636916 -3.861602818e-05 )
( 0.004004910123 0.0001029903215 -5.025272185e-05 )
( 0.003946577199 0.0001058114794 -4.878285836e-05 )
( 0.003825573018 0.0001118628934 -4.587342846e-05 )
( 0.00388702983 0.0001087733981 -4.747961066e-05 )
( 0.003567705629 0.000126406303 -3.97260992e-05 )
( 0.003632640932 0.0001222837309 -4.100282968e-05 )
( 0.003762647975 0.0001150777898 -4.437798634e-05 )
( 0.003698496148 0.0001186681184 -4.263137816e-05 )
( 0.01102619339 0.004855126608 2.796839726e-05 )
( 0.01142887119 0.005071458872 3.139819819e-05 )
( 0.01044925675 0.004626124166 2.366059562e-05 )
( 0.01067274436 0.004517797846 2.50304729e-05 )
( 0.01015679725 0.004290670156 2.319374835e-05 )
( 0.009706358425 0.004043958616 2.221049726e-05 )
( 0.009333171882 0.003864056896 1.956309279e-05 )
( 0.009390277788 0.003792060539 2.208433216e-05 )
( 0.009351658635 0.00366787333 2.15928485e-05 )
( 0.004470452201 8.160916332e-05 -5.908912863e-05 )
( 0.004516126122 7.950316649e-05 -5.990069621e-05 )
( 0.003465959569 5.48555945e-05 -4.527291821e-05 )
( 0.003421140136 5.637061986e-05 -4.479188283e-05 )
( 0.003328247694 5.938750473e-05 -4.333773541e-05 )
( 0.003375217784 5.782251537e-05 -4.383792475e-05 )
( 0.003128640354 6.575710722e-05 -3.985883814e-05 )
( 0.003180415835 6.407388719e-05 -4.097414785e-05 )
( 0.003280143952 6.093390039e-05 -4.290215293e-05 )
( 0.003230864182 6.249289436e-05 -4.194909343e-05 )
( 0.003661877476 0.0003382087743 -2.426309584e-05 )
( 0.003666310105 0.0003572177375 -2.274651342e-05 )
( 0.006446531974 0.0009124296485 -2.52828454e-06 )
( 0.006356196478 0.00092994445 -3.149136774e-06 )
( 0.005815876648 0.0007797403377 -9.140650036e-06 )
( 0.005817349534 0.0007435645675 -9.362978744e-06 )
( 0.005095894448 0.0006179381162 -1.637424066e-05 )
( 0.004498992581 0.0005122820148 -1.976853491e-05 )
( 0.003654944478 0.0003991661652 -2.046070767e-05 )
( 0.003666247241 0.0003782259591 -2.165593287e-05 )
( 0.006059595384 0.0009745907737 -5.62549576e-06 )
( 0.006192232016 0.0009349395405 -4.587021067e-06 )
( 0.00389386341 0.0002384585532 -3.651484076e-05 )
( 0.00384288514 0.0002481237752 -3.564182407e-05 )
( 0.003719372675 0.0002709533146 -3.298834417e-05 )
( 0.003788900329 0.0002591188531 -3.448348434e-05 )
( 0.003463246627 0.0003128497628 -2.645199129e-05 )
( 0.002725770464 0.0002403089165 -2.16892513e-05 )
( 0.003404838732 0.0003002366575 -2.765907993e-05 )
( 0.003625886282 0.0002835357736 -3.126312367e-05 )
( 0.003506590147 0.0002951623756 -2.933718679e-05 )
( 0.006186363287 0.001157029183 -4.606484708e-06 )
( 0.006640192121 0.001289944514 -5.363400533e-07 )
( 0.006358341314 0.001139654545 -2.068803497e-06 )
( 0.006577488501 0.001319173607 -2.480415787e-06 )
( 0.005851660389 0.0009711435996 -7.194071259e-06 )
( 0.005771519616 0.0009909444489 -7.902351172e-06 )
( 0.006790002808 0.001524121384 -5.764194384e-07 )
( 0.007039766759 0.001670258935 1.599241727e-06 )
( 0.00668023061 0.001542179612 -1.64160474e-06 )
( 0.006332498975 0.001376600703 -5.853098173e-06 )
( 0.006451571826 0.001331895939 -4.38904317e-06 )
( 0.007174443454 0.001809118199 4.861267826e-06 )
( 0.007130636368 0.001858812058 4.906180493e-06 )
( 0.007026844658 0.001951675629 1.506505782e-06 )
( 0.007354468107 0.00208498165 4.620105301e-06 )
( 0.007102759555 0.001913501997 3.076399707e-06 )
( 0.006930393167 0.001702677924 -1.928805204e-08 )
( 0.008639466949 0.003170557786 1.826172047e-05 )
( 0.008549286984 0.003214573022 1.769860864e-05 )
( 0.008826902136 0.003377920715 2.043622771e-05 )
( 0.009147414938 0.003447382245 2.215062159e-05 )
( 0.009035092779 0.003499130951 1.914694258e-05 )
( 0.008290012367 0.003027304541 1.749105104e-05 )
( 0.008487448096 0.002990716603 2.05804954e-05 )
( 0.008348709904 0.002829376608 1.669487028e-05 )
( 0.008248256519 0.00285691442 1.649765363e-05 )
( 0.00788938906 0.00267365342 1.250872447e-05 )
( 0.007892140187 0.002599017927 1.214306212e-05 )
( 0.007711360697 0.002475304296 9.343846614e-06 )
( 0.007410493679 0.002355262637 6.511841093e-06 )
( 0.007053349167 0.002208492719 3.295823035e-06 )
( 0.007136329543 0.002149495296 3.304561005e-06 )
( 0.007256874815 0.002123068785 4.279682798e-06 )
( 0.003503066488 0.0001307216735 -3.841225771e-05 )
( 0.003437052947 0.000135326336 -3.718302469e-05 )
( 0.003298870986 0.0001450758136 -3.506983558e-05 )
( 0.003369201208 0.000140116681 -3.596032184e-05 )
( 0.002993983682 0.0001629379985 -3.163709334e-05 )
( 0.003074315609 0.0001596744551 -3.21426669e-05 )
( 0.003226371948 0.0001500530925 -3.390865822e-05 )
( 0.00315135601 0.0001549499284 -3.308222222e-05 )
( 0.003075583372 6.750015018e-05 -3.886915874e-05 )
( 0.003021278651 6.936411228e-05 -3.784867658e-05 )
( 0.002908383729 7.325660408e-05 -3.587126776e-05 )
( 0.002965627005 7.12768524e-05 -3.663275857e-05 )