/*--------------------------------*- C++ -*----------------------------------*\
  =========                 |
  \\      /  F ield         | OpenFOAM: The Open Source CFD Toolbox
   \\    /   O peration     | Website:  https://openfoam.org
    \\  /    A nd           | Version:  8
     \\/     M anipulation  |
\*---------------------------------------------------------------------------*/






FoamFile
{
    version     2.0;
    format      ascii;
    class       volVectorField;
    location    "0";
    object      UDDES;
}
// * * * * * * * * * * * * * * * * * * * * * * * * * * * * * * * * * * * * * //

dimensions      [0 1 -1 0 0 0 0];


internalField   nonuniform List<vector> 
17348
(
( -0.002618701896 0.002600883134 -0.0001404051727 )
( -0.002793685533 0.002791879233 -0.0001462641958 )
( -0.002335272264 0.002282535657 -0.000135727445 )
( -0.002825085772 0.00283276313 -0.000150735621 )
( -0.002565519884 0.002532854909 -0.0001433242578 )
( -0.001991151366 0.001915854169 -0.0001305383485 )
( -0.002958951984 0.003020013915 -0.0001605757134 )
( -0.002556321677 0.002520401264 -0.0001458007027 )
( -0.002748491708 0.002730612177 -0.0001526460546 )
( -0.002255922649 0.002190095838 -0.0001379794849 )
( -0.00177874486 0.001701338566 -0.0001283173333 )
( -0.0027769804 0.00276692817 -0.0001596815127 )
( -0.002883118344 0.003039777279 -0.0001668535115 )
( -0.002275187522 0.002212575637 -0.0001442015491 )
( -0.002526853001 0.002480347175 -0.0001521804516 )
( -0.001986657269 0.001910919091 -0.0001364067139 )
( -0.00153624441 0.001463206834 -0.0001235616073 )
( -0.001575076021 0.001502513769 -0.0001215012453 )
( -0.002709172433 0.00267130509 -0.0001650753838 )
( -0.00289022061 0.002937002806 -0.0001697355474 )
( -0.002516619163 0.002463441575 -0.0001571150788 )
( -0.002742800629 0.002998509444 -0.0001685611933 )
( -0.001962451264 0.00188156066 -0.0001415776205 )
( -0.002212392166 0.002134766662 -0.0001495007891 )
( -0.001719396911 0.001639234484 -0.0001340832241 )
( -0.001511730254 0.001439550193 -0.0001276022522 )
( -0.001231636852 0.001161118736 -0.0001141274188 )
( -0.001192580676 0.0011206005 -0.000109543158 )
( -0.002734677866 0.00270515657 -0.0001743332687 )
( -0.002494846471 0.002428783337 -0.0001677034015 )
( -0.002763787284 0.002928786911 -0.0001731171069 )
( -0.002268202137 0.002188107232 -0.0001604658319 )
( -0.002380645368 0.002801292576 -0.0001704271272 )
( -0.001707409392 0.001624654746 -0.0001397176384 )
( -0.001942662522 0.00185789098 -0.0001496989571 )
( -0.001464070869 0.001389361103 -0.0001292738598 )
( -0.001173597178 0.001102453098 -0.0001171862023 )
( -0.0009076866554 0.0008451216272 -0.0001016131937 )
( -0.0009162079077 0.000854899874 -9.817931277e-05 )
( -0.002813403262 0.002849013079 -0.0001824259525 )
( -0.002488732571 0.002414839808 -0.0001754001423 )
( -0.002673720941 0.002614613622 -0.0001831523259 )
( -0.002218145877 0.002120880177 -0.0001690854842 )
( -0.001969620585 0.001874441281 -0.0001610308391 )
( -0.002649927977 0.002816004679 -0.0001814990828 )
( -0.001217987738 0.002327399561 -0.0001675703097 )
( -0.002431002678 0.002721931553 -0.0001803215855 )
( -0.001462473418 0.001387840486 -0.0001325002959 )
( -0.001456117607 0.00137901213 -0.0001354916458 )
( -0.001704347669 0.001615755493 -0.000151107175 )
( -0.001167455688 0.001097660162 -0.0001205872541 )
( -0.0008954457007 0.0008350610733 -0.0001053725355 )
( -0.0006717137294 0.0006205753889 -8.764491213e-05 )
( -0.0006798994727 0.0006301589892 -8.467913722e-05 )
( -0.002703091595 0.002654362703 -0.0001918098133 )
( -0.002249846933 0.002153962152 -0.0001802548941 )
( -0.002487135353 0.002404689556 -0.0001868490654 )
( -0.001950762933 0.001852111309 -0.0001708813943 )
( -0.001719260123 0.001630482147 -0.0001618538663 )
( -0.002725365339 0.002751200926 -0.0001924205426 )
( -0.001814320101 0.002422634512 -0.0001794519776 )
( 0.0007112713065 0.001693560276 -0.0001679077541 )
( -0.002499447903 0.002675964963 -0.0001886736864 )
( -0.001151278382 0.001080533722 -0.000124131926 )
( -0.001430699485 0.001354100998 -0.0001413405116 )
( -0.001145724673 0.001073710388 -0.0001274428796 )
( -0.001456959289 0.001380353351 -0.0001470603602 )
( -0.0008849125588 0.0008255584398 -0.0001088081262 )
( -0.0006591074634 0.0006105930661 -9.089581727e-05 )
( -0.0004794556298 0.0004394823336 -7.234399527e-05 )
( -0.0004870385164 0.0004480969801 -6.990157272e-05 )
( -0.002658627229 0.002577384468 -0.0001985573617 )
( -0.002521651331 0.002431396395 -0.0001946842094 )
( -0.002077474725 0.001967535587 -0.0001837676245 )
( -0.002274955623 0.002167311264 -0.0001894425077 )
( -0.0018464569 0.001739387633 -0.0001769746013 )
( -0.001449116389 0.001374258893 -0.0001526221167 )
( -0.001480904524 0.001400394016 -0.0001571057946 )
( -0.002654571552 0.002593389712 -0.0001986897842 )
( -0.002143018879 0.002389253583 -0.0001824342762 )
( 0.0001154786441 0.001766908681 -0.0001719625143 )
( 0.004000096582 0.0009179273038 -0.0001615389192 )
( -0.002578921849 0.002609131392 -0.0001925460674 )
( -0.0008661843603 0.0008082649438 -0.0001121177411 )
( -0.001129638869 0.001057093032 -0.0001315352711 )
( -0.0008579501882 0.0007972191088 -0.0001153222547 )
( -0.00111375493 0.001041519572 -0.0001354173874 )
( -0.000649013673 0.0006015603431 -9.395779489e-05 )
( -0.0004677861289 0.0004303517635 -7.497089973e-05 )
( -0.0003285634448 0.000298875646 -5.685581345e-05 )
( -0.0003351219348 0.0003061273601 -5.497173333e-05 )
( -0.002515849192 0.002415174851 -0.0002006044379 )
( -0.002286073053 0.002169232816 -0.0001966896816 )
( -0.001865312573 0.001748069189 -0.0001852264686 )
( -0.002040128689 0.001924237469 -0.0001896109898 )
( -0.001644225093 0.001544521889 -0.0001753883989 )
( -0.001514135045 0.001424114918 -0.0001642257412 )
( -0.001144974027 0.001072186511 -0.0001405402581 )
( -0.00108916848 0.001012022141 -0.0001416494779 )
( -0.002475511516 0.002348974114 -0.0001983264228 )
( -0.0004006244708 0.00181549869 -0.0001712210214 )
( -0.002435481176 0.002394884825 -0.0001797120203 )
( -0.002113645198 0.002289473545 -0.000173714041 )
( -0.002556523075 0.002516729292 -0.0001927285048 )
( 0.003362848889 0.0009826994501 -0.0001605178841 )
( 0.00842272304 0.0002231054386 -0.0001294781396 )
( -0.0006316840881 0.0005867953296 -9.677643538e-05 )
( -0.0008466711733 0.0007868302637 -0.000118738637 )
( -0.0006240285002 0.0005762378569 -9.964034689e-05 )
( -0.0008367042756 0.0007759787841 -0.0001217081081 )
( -0.0004586691794 0.0004222623247 -7.752350939e-05 )
( -0.0003187021648 0.000291135977 -5.880405661e-05 )
( -0.0002143222082 0.0001933787134 -4.189686297e-05 )
( -0.0002195615089 0.0001990548481 -4.051619544e-05 )
( -0.002385349479 0.002254569903 -0.0002008012816 )
( -0.0021286665 0.001997191226 -0.0001963954128 )
( -0.001638192567 0.001534149516 -0.0001810689573 )
( -0.001866779639 0.001739084837 -0.0001897066541 )
( -0.001460191561 0.001368560595 -0.0001681436552 )
( -0.001397857675 0.001313172281 -0.0001686077449 )
( -0.001170028001 0.001087620622 -0.0001491846342 )
( -0.0008190053632 0.0007578580407 -0.0001244166051 )
( -0.0008107309695 0.0007459969493 -0.000126697938 )
( -0.002237657551 0.002072044415 -0.000193476706 )
( -0.002414732473 0.002250416204 -0.0001934454776 )
( -0.00222991081 0.002093021991 -0.000197381145 )
( -0.001197199104 0.001935485518 -0.0001663806033 )
( 0.002736079972 0.001038025483 -0.0001607664453 )
( -0.00240456569 0.002214397769 -0.0001687632757 )
( -0.002453233814 0.00229059346 -0.0001865606027 )
( -0.002155971713 0.002232077532 -0.0001671401988 )
( 0.008458519354 0.0002298524196 -0.0001237798569 )
( 0.0129770413 -0.0001188061869 -9.377422975e-05 )
( -0.0004436080926 0.0004099517246 -7.988866128e-05 )
( -0.000612715492 0.0005661749747 -0.0001024903177 )
( -0.0004366560315 0.0004007146345 -8.221698954e-05 )
( -0.0006038294523 0.000556390034 -0.0001049906132 )
( -0.0003109750396 0.0002843068505 -6.080018647e-05 )
( -0.0002071827475 0.0001878074254 -4.333391553e-05 )
( -0.0001299677679 0.0001161767359 -2.81305729e-05 )
( -0.0001332833199 0.0001197313977 -2.708531792e-05 )
( -0.001927058445 0.00178673421 -0.0001923003874 )
( -0.001385924639 0.001301209675 -0.0001732114615 )
( -0.001363797463 0.001279653399 -0.0001703451562 )
( -0.00172172382 0.001602545613 -0.0001866521197 )
( -0.00115350401 0.001076680259 -0.0001535666088 )
( -0.001130609075 0.00105720805 -0.0001557157811 )
( -0.0007889147382 0.0007264919113 -0.0001284758328 )
( -0.0005884362618 0.0005414097104 -0.000106939282 )
( -0.0005803288659 0.0005293570575 -0.0001086852135 )
( -0.001975138672 0.001818179619 -0.000190699604 )
( -0.00207111286 0.00188977411 -0.0001884180238 )
( -0.002274183324 0.002093836898 -0.0001881361386 )
( 0.00223158556 0.00106862199 -0.0001598048839 )
( -0.001076332177 0.001792296302 -0.0001613784116 )
( -0.001860981807 0.002037547296 -0.0001578671945 )
( 0.008049633354 0.0002534500381 -0.0001213637443 )
( -0.002278048545 0.002053824486 -0.0001692897204 )
( -0.002255535685 0.001998784486 -0.0001580639801 )
( -0.002400584519 0.002194812521 -0.0001766158675 )
( -0.002371779876 0.002128532156 -0.000158005525 )
( -0.002246426884 0.002036591992 -0.0001781312458 )
( -0.002317518229 0.002117785159 -0.0001533524191 )
( 0.01384063158 -0.0001408373646 -8.554133092e-05 )
( 0.01788743213 -0.0001497529884 -6.980610488e-05 )
( -0.0002987713378 0.0002745396923 -6.263812975e-05 )
( -0.0004262049333 0.0003915443085 -8.451737085e-05 )
( -0.0002926458837 0.0002668373345 -6.446271436e-05 )
( -0.0004185884027 0.0003832335351 -8.643395267e-05 )
( -0.0002007640142 0.000182048243 -4.464428639e-05 )
( -0.0001257736294 0.0001129543598 -2.917950405e-05 )
( -6.742874393e-05 6.017915075e-05 -1.58868188e-05 )
( -6.885849871e-05 6.181699428e-05 -1.524739491e-05 )
( -0.001734290854 0.001601849217 -0.0001860765187 )
( -0.001109768054 0.001037998358 -0.0001592701446 )
( -0.001438949257 0.0013433235 -0.0001763889159 )
( -0.001157240127 0.00108662725 -0.0001595745853 )
( -0.00149630825 0.001395697705 -0.0001792160765 )
( -0.0007907827967 0.0007326303166 -0.0001313565444 )
( -0.0007724442403 0.0007164294366 -0.0001319508592 )
( -0.0005613577086 0.0005145513569 -0.0001100278168 )
( -0.0004060693609 0.0003713297483 -8.789877029e-05 )
( -0.0004001573834 0.0003616433532 -8.909977623e-05 )
( -0.001825865591 0.001676090294 -0.0001852346759 )
( -0.001844335115 0.001676025568 -0.0001797712466 )
( -0.002043974819 0.001845846302 -0.000178896953 )
( 0.0009148851386 0.00124238478 -0.0001597695955 )
( 0.007672374137 0.0002672387636 -0.0001183394124 )
( -0.001248537912 0.001758498256 -0.000157900984 )
( -0.002158025745 0.001994851511 -0.0001481151412 )
( 0.01434025727 -0.0001451948192 -7.680151612e-05 )
( -0.002081311075 0.001832281821 -0.0001590404718 )
( -0.002099936362 0.00187229435 -0.0001711972 )
( -0.002143015619 0.001855472918 -0.0001510487637 )
( -0.002279545413 0.002007543808 -0.0001508366258 )
( -0.002302834531 0.00203915243 -0.0001463073859 )
( -0.00226150942 0.001956118271 -0.000143119265 )
( 0.01857020706 -0.0001347507205 -6.512348773e-05 )
( 0.02258731611 9.887622582e-05 -5.953794607e-05 )
( -0.0001915052708 0.000174741057 -4.600243483e-05 )
( -0.0002837777429 0.0002591994416 -6.613949517e-05 )
( -0.0001864772203 0.0001687642798 -4.732613888e-05 )
( -0.0002775570028 0.00025252247 -6.754447531e-05 )
( -0.0001205942826 0.0001082602976 -2.993879934e-05 )
( -6.51986411e-05 5.855295603e-05 -1.656724635e-05 )
( -2.787601261e-05 2.647344081e-05 -7.296477634e-06 )
( -2.895944272e-05 2.757839684e-05 -7.004487088e-06 )
( -0.001508116024 0.001396233914 -0.0001785666973 )
( -0.001530480688 0.001417603926 -0.0001799015445 )
( -0.0007613176713 0.0007060040953 -0.0001345479104 )
( -0.001148055308 0.001074886066 -0.0001624656143 )
( -0.000765707402 0.0007091020816 -0.0001332175889 )
( -0.001191070769 0.001107211458 -0.0001637371024 )
( -0.0005291820271 0.0004884052323 -0.0001095736079 )
( -0.0005202621105 0.0004778258735 -0.0001100833251 )
( -0.0003871084191 0.0003522951447 -8.990881906e-05 )
( -0.0002680165635 0.0002436190407 -6.854796811e-05 )
( -0.0002640467428 0.000236356369 -6.942165055e-05 )
( -0.001578783966 0.001453990466 -0.0001788351365 )
( -0.001551484689 0.001429427532 -0.0001765548222 )
( -0.001590318978 0.001452392666 -0.0001746122725 )
( -0.001569337677 0.001430694247 -0.0001721855515 )
( -0.001857077586 0.001668360317 -0.0001720322762 )
( 0.007447964512 0.0002656223951 -0.000115474737 )
( -0.0004020545166 0.001398379216 -0.0001652915089 )
( 0.001493076794 0.001004551537 -0.0001608250022 )
( 0.01444449462 -0.0001266033942 -6.813391519e-05 )
( -0.001801778795 0.001766450703 -0.0001544836996 )
( -0.002249319339 0.001948341611 -0.000141923796 )
( -0.002207836136 0.001895577065 -0.0001420574408 )
( -0.002149825916 0.0019150523 -0.0001466733229 )
( 0.01886803284 -9.480875451e-05 -5.870619498e-05 )
( -0.001832575537 0.001633075532 -0.0001628382888 )
( -0.001857244642 0.001629525796 -0.0001530729787 )
( -0.001894575311 0.001635399414 -0.0001447555405 )
( -0.002141916892 0.001825575484 -0.0001416868035 )
( -0.002200380433 0.001849964261 -0.000137776864 )
( 0.02289908566 0.000164280762 -5.760561908e-05 )
( 0.02499394864 0.00036160741 -5.201367458e-05 )
( -0.0001137716463 0.000102790058 -3.076218127e-05 )
( -0.0001795974822 0.0001629364124 -4.846232332e-05 )
( -0.0001100404334 9.861285071e-05 -3.164775626e-05 )
( -0.00017482556 0.0001579661184 -4.936291953e-05 )
( -6.206719263e-05 5.559978672e-05 -1.694378079e-05 )
( -2.749698797e-05 2.627516005e-05 -7.718490451e-06 )
( -0.001234282739 0.001141327317 -0.0001671729406 )
( -0.001186858281 0.001107262797 -0.0001662250288 )
( -0.000510316866 0.0004688084882 -0.000112267604 )
( -0.0007595146308 0.0007036688039 -0.0001350860111 )
( -0.0005120409187 0.0004714374663 -0.0001110857993 )
( -0.0007998200017 0.0007410334074 -0.0001387058001 )
( -0.0003656363406 0.0003361197305 -8.947732567e-05 )
( -0.0003593157162 0.0003286040446 -8.998098929e-05 )
( -0.0002563885355 0.0002314118174 -6.999163452e-05 )
( -0.0001680111745 0.0001517457858 -5.006369247e-05 )
( -0.0001655790256 0.0001468339033 -5.069871986e-05 )
( -0.001188942231 0.001102074282 -0.0001646975579 )
( -0.001235338044 0.001134709921 -0.0001649510668 )
( -0.001194791403 0.001100474969 -0.0001625317382 )
( -0.001606560429 0.001450089389 -0.0001688099437 )
( -0.001248256187 0.001136159291 -0.0001623174467 )
( -0.001581820776 0.001426503062 -0.0001653679938 )
( 0.005768806674 0.0004040518834 -0.0001320033771 )
( 0.01464027353 -0.0001003307552 -6.266544369e-05 )
( -0.00111548428 0.001441002358 -0.0001674339001 )
( 0.001269961824 0.0009713904583 -0.0001628779428 )
( 0.01924822107 -4.213417924e-05 -4.9724571e-05 )
( -0.001753329416 0.001659457805 -0.0001600299438 )
( -0.001999067608 0.001723347581 -0.0001548869477 )
( -0.002135363873 0.00181605434 -0.0001461401407 )
( -0.002178225201 0.001818399178 -0.0001368039375 )
( -0.00217358768 0.001750258729 -0.0001386348158 )
( 0.02321823686 0.0002356932528 -5.576980402e-05 )
( -0.001542747486 0.001382472692 -0.0001572246838 )
( -0.001577951945 0.001415590523 -0.0001609923784 )
( -0.00155850756 0.001382359653 -0.0001523262326 )
( -0.001571442117 0.001384723233 -0.0001487875124 )
( -0.00161916716 0.001396961743 -0.0001412180864 )
( -0.001593108405 0.00138923584 -0.0001444630907 )
( -0.002003894653 0.001689514145 -0.0001376262226 )
( -0.002100152662 0.001742628287 -0.0001356090797 )
( 0.02525445446 0.0004388858506 -4.783890472e-05 )
( 0.02673441358 0.0006321071414 -1.778574187e-05 )
( -5.750850323e-05 5.192262688e-05 -1.73326971e-05 )
( -0.0001052405132 9.46107466e-05 -3.236926568e-05 )
( -5.525353481e-05 4.943894237e-05 -1.779127342e-05 )
( -0.0001019415431 9.129274986e-05 -3.295491479e-05 )
( -2.53467806e-05 2.428629523e-05 -7.820426617e-06 )
( -0.0008904841379 0.0008230957901 -0.0001469712297 )
( -0.0008525858284 0.0007888635155 -0.0001434492297 )
( -0.0003518788726 0.0003219926148 -9.183448856e-05 )
( -0.000502723502 0.0004641994019 -0.0001130534947 )
( -0.0003529560054 0.0003240176593 -9.088705701e-05 )
( -0.0005044189165 0.0004645056033 -0.0001130717283 )
( -0.0002433177433 0.0002227034274 -6.948343071e-05 )
( -0.0002400065714 0.000218712521 -6.99948796e-05 )
( -0.0001622589916 0.0001451809367 -5.103454532e-05 )
( -9.745473653e-05 8.732204151e-05 -3.333159839e-05 )
( -9.615909948e-05 8.452094335e-05 -3.378575639e-05 )
( -0.0008888929733 0.0008190625813 -0.0001465620735 )
( -0.0008890780155 0.0008171746158 -0.0001462517394 )
( -0.0008900341927 0.0008153957315 -0.0001457871549 )
( -0.001206730376 0.001099345856 -0.0001593197085 )
( -0.000893151504 0.0008156779222 -0.0001454005687 )
( -0.001258616103 0.001132428646 -0.000157410439 )
( 0.0154279964 -2.669409878e-05 -6.387758185e-05 )
( 0.007670558523 0.0001591081673 -0.0001189177419 )
( 0.003828874556 0.0004743926984 -0.0001500681537 )
( 0.02017376199 6.521925388e-05 -4.721924779e-05 )
( -0.001843726495 0.001603522571 -0.0001609652973 )
( -0.001490609488 0.001453509787 -0.00016885472 )
( -0.0009430383216 0.001310049323 -0.0001718850835 )
( 0.0002207199432 0.001039317111 -0.0001712971134 )
( 0.02360384353 0.0003201665531 -5.379776121e-05 )
( -0.002128333086 0.001706936397 -0.0001463110093 )
( -0.002081085462 0.001617246657 -0.0001536877535 )
( -0.002065045992 0.001661651302 -0.0001350200182 )
( -0.002114265226 0.001640416915 -0.0001403047791 )
( 0.02552758902 0.0005217875005 -4.39513642e-05 )
( -0.001232437906 0.001100765308 -0.0001505481632 )
( -0.001221959363 0.001100239577 -0.0001532751776 )
( -0.001245480962 0.00110133714 -0.0001463096414 )
( -0.001259386074 0.00110207242 -0.0001436827151 )
( -0.001294302754 0.001107477699 -0.0001371711842 )
( -0.001634395914 0.001377892913 -0.0001367078366 )
( -0.001276321942 0.001108810538 -0.0001396889566 )
( -0.001847365987 0.001545909443 -0.0001347382204 )
( -0.001895871479 0.001542202663 -0.0001323931647 )
( 0.02685740776 0.0007041944191 -1.062337105e-05 )
( 0.02744993567 0.0007491104188 1.056049223e-05 )
( -2.354130811e-05 2.281857087e-05 -8.024055205e-06 )
( -5.248096568e-05 4.722457379e-05 -1.81450323e-05 )
( -2.2462169e-05 2.169151776e-05 -8.201810488e-06 )
( -5.055366273e-05 4.529180296e-05 -1.848091961e-05 )
( -0.0005363908131 0.0004936384503 -0.0001170133764 )
( -0.000536958978 0.0004961442901 -0.0001169732714 )
( -0.0002349186834 0.0002142054727 -7.151130558e-05 )
( -0.00034539646 0.0003181125212 -9.256601334e-05 )
( -0.0002355235338 0.0002156778064 -7.06827268e-05 )
( -0.0003436114057 0.0003153427097 -9.297473298e-05 )
( -0.000155187372 0.0001413458231 -5.067522943e-05 )
( -0.0001537807693 0.0001396151347 -5.10048194e-05 )
( -9.566976223e-05 8.490752953e-05 -3.403460869e-05 )
( -4.800584065e-05 4.319546133e-05 -1.871344466e-05 )
( -4.746065315e-05 4.194673966e-05 -1.898597657e-05 )
( -0.0005311944406 0.0004899305059 -0.0001170962714 )
( -0.0005303564249 0.0004869677068 -0.0001174322388 )
( -0.0005264477804 0.0004842219641 -0.0001175537327 )
( -0.0008976926329 0.0008151945658 -0.0001438281615 )
( -0.000529722427 0.0004845399817 -0.000117547439 )
( -0.0009011309012 0.0008136391989 -0.0001420016924 )
( 0.01409184188 9.637522453e-06 -7.399286551e-05 )
( 0.02153430134 0.0002244836651 -5.39176981e-05 )
( 0.007633591071 0.0001342395262 -0.0001150211756 )
( 0.003044159384 0.0005104984739 -0.000151414788 )
( 0.02411935292 0.0004369001836 -5.182070527e-05 )
( -0.001898679649 0.001520238118 -0.0001621309784 )
( -0.00175795448 0.001405768562 -0.0001659765549 )
( -0.001150582917 0.001299275551 -0.0001717296691 )
( -0.0001105006231 0.000996669638 -0.0001666955068 )
( 0.02593451366 0.0006363982102 -3.718780863e-05 )
( -0.002107919659 0.001595364185 -0.0001453018922 )
( -0.002072408097 0.00152011693 -0.0001546345447 )
( -0.00191903743 0.001503094216 -0.0001335618872 )
( -0.001997263171 0.001507468754 -0.0001389507088 )
( 0.02697801217 0.0007802953478 -2.959139692e-06 )
( -0.0009137584711 0.0008129493217 -0.0001369806705 )
( -0.0009066069615 0.0008127480978 -0.0001394461724 )
( -0.0009243146633 0.0008130723145 -0.0001341580064 )
( -0.0009363468271 0.0008151659276 -0.0001313562389 )
( -0.0009651300497 0.0008192890091 -0.0001262943551 )
( -0.001319493749 0.001099722693 -0.000133087291 )
( -0.001583172474 0.001316104084 -0.0001331267413 )
( -0.0009503048495 0.0008176648989 -0.0001290267101 )
( -0.001571396948 0.001300288248 -0.000131587236 )
( -0.001618945505 0.001318502123 -0.0001304495818 )
( -0.001665313728 0.001342279371 -0.000130286222 )
( 0.02749996446 0.0008080388652 1.809969399e-05 )
( 0.02776584215 0.0007978774374 1.41881701e-05 )
( -2.113475784e-05 2.060069528e-05 -8.351212273e-06 )
( -2.022958688e-05 1.97581976e-05 -8.539792361e-06 )
( -0.000336702622 0.0003087951045 -9.339324606e-05 )
( -0.0003374691587 0.0003111935803 -9.317584045e-05 )
( -0.0001506075059 0.0001368421945 -5.227358997e-05 )
( -0.000229989877 0.0002112401125 -7.205532165e-05 )
( -0.0001508026471 0.0001377564913 -5.162746311e-05 )
( -0.0002287607786 0.0002091690549 -7.243641448e-05 )
( -9.254756151e-05 8.378710481e-05 -3.37113961e-05 )
( -9.211891302e-05 8.32475489e-05 -3.399124398e-05 )
( -4.823022027e-05 4.305462426e-05 -1.913233791e-05 )
( -1.897670882e-05 1.876407623e-05 -8.674030141e-06 )
( -1.878452167e-05 1.829822577e-05 -8.818748938e-06 )
( -0.0003308857849 0.0003051047679 -9.381799464e-05 )
( -0.0003297071962 0.000302512577 -9.427381883e-05 )
( -0.0003242914972 0.0002990367648 -9.462441085e-05 )
( -0.0005291035632 0.0004843194911 -0.0001166890506 )
( -0.0003243632964 0.0002977257827 -9.503171168e-05 )
( -0.0005317292525 0.0004823490453 -0.0001154586425 )
( 0.02254583687 0.0003695866326 -6.335075159e-05 )
( 0.01267378312 -6.480331649e-05 -6.94465125e-05 )
( 0.01714551635 3.716742503e-05 -5.390032311e-05 )
( 0.02496872097 0.0005812681047 -5.668597441e-05 )
( 0.007013185881 0.000104676401 -0.000109976856 )
( 0.002223757096 0.0005607408239 -0.0001487532136 )
( 0.02640985698 0.0007748976932 -2.855101411e-05 )
( -0.002060860163 0.00148027332 -0.0001606689184 )
( -0.001893425593 0.001382902614 -0.0001653466315 )
( -0.001219607191 0.001237558201 -0.000169630468 )
( 0.0002803123789 0.0008550633793 -0.0001594747737 )
( -0.0008913958445 0.001062002382 -0.0001598948584 )
( -0.001317030285 0.001221006736 -0.0001659025293 )
( 0.02711092681 0.0008617517306 6.074184967e-06 )
( -0.00198130263 0.001443838002 -0.0001458165789 )
( -0.002085080836 0.001445464208 -0.0001557888027 )
( -0.001692823134 0.001343599521 -0.0001307276834 )
( -0.001728547039 0.00135191204 -0.0001323074684 )
( -0.001783432439 0.00136126671 -0.000135606082 )
( -0.001811895287 0.001360295922 -0.0001387660304 )
( 0.02754815482 0.0008888825541 2.629078153e-05 )
( -0.000536054722 0.0004779705487 -0.0001126446659 )
( -0.0005304152728 0.0004795393324 -0.000114138049 )
( -0.0005414485349 0.0004794934648 -0.0001106414056 )
( -0.0005512657226 0.0004801254545 -0.0001086173943 )
( -0.0005668712547 0.0004796800786 -0.0001058934504 )
( -0.0009718837682 0.0008065697039 -0.0001239872654 )
( -0.001279173302 0.001054265536 -0.0001293812238 )
( -0.0005590380169 0.0004824038479 -0.0001068147321 )
( -0.001282830141 0.001050744671 -0.000127642852 )
( -0.001321346848 0.00107302703 -0.0001265974861 )
( -0.001360018738 0.001092386083 -0.0001264617313 )
( 0.02779734135 0.0009381706477 2.304350892e-05 )
( -0.0002231720136 0.0002039185929 -7.299801655e-05 )
( -0.0002238677116 0.0002058718528 -7.267668116e-05 )
( -9.038481949e-05 8.177696145e-05 -3.491916868e-05 )
( -0.0001472145959 0.0001348035003 -5.274135401e-05 )
( -9.036708798e-05 8.224340854e-05 -3.444137838e-05 )
( -0.0001465798268 0.0001335026318 -5.303691432e-05 )
( -4.726129555e-05 4.309526048e-05 -1.899710696e-05 )
( -4.729762804e-05 4.302311936e-05 -1.910858555e-05 )
( -1.972616883e-05 1.933880412e-05 -8.947394235e-06 )
( -0.0002182612661 0.0002008144947 -7.357307186e-05 )
( -0.0002171668748 0.0001987287251 -7.396389992e-05 )
( -0.0002121917933 0.0001956129854 -7.426174852e-05 )
( -0.0003208523267 0.0002961526334 -9.482760652e-05 )
( -0.0002114643867 0.0001943094394 -7.485636888e-05 )
( -0.0003200421925 0.0002923258871 -9.452165978e-05 )
( 0.02215355076 0.000409776374 -6.388550537e-05 )
( 0.02536945418 0.0007009877008 -6.019447756e-05 )
( 0.01216675155 -5.841240636e-05 -6.94309565e-05 )
( 0.01752696373 7.202295819e-05 -5.111913197e-05 )
( 0.02674713917 0.0008987062029 -2.108610715e-05 )
( 0.006537186913 0.0001146878785 -0.0001030338244 )
( -8.582748706e-06 0.0008769564447 -0.000153337096 )
( 0.0008412916795 0.0007055888418 -0.0001492375741 )
( 0.00307361735 0.0004128213332 -0.000135528142 )
( 0.02733070031 0.0009691761807 1.630989391e-05 )
( -0.002071764786 0.001415572711 -0.0001600797841 )
( -0.001918825321 0.001339650829 -0.000162878714 )
( -0.001688122516 0.001229361282 -0.0001576776995 )
( -0.00118341879 0.001077342196 -0.0001529309229 )
( 0.02759279497 0.0009540242609 3.402561197e-05 )
( -0.001841904479 0.001325572142 -0.0001453506702 )
( -0.001808585832 0.001330649713 -0.0001421439229 )
( -0.002002688125 0.001368043711 -0.0001556846546 )
( -0.001888542902 0.001305787358 -0.0001500742655 )
( -0.001371838385 0.001085149008 -0.0001254123054 )
( -0.001403264003 0.001091276295 -0.0001268349588 )
( -0.001436021877 0.001091694925 -0.0001293791574 )
( -0.001468392205 0.001094492385 -0.0001319979347 )
( -0.0003177994513 0.0002847873548 -9.34366617e-05 )
( -0.0003157107858 0.000287753297 -9.408879851e-05 )
( -0.0003175956081 0.0002830206067 -9.252763266e-05 )
( -0.0003242685052 0.0002832100436 -9.117872833e-05 )
( -0.0003365161538 0.0002836647327 -8.893747872e-05 )
( -0.0005686700461 0.0004743066384 -0.0001047451296 )
( -0.0009532405529 0.000786039629 -0.0001206568631 )
( -0.0003267119755 0.0002822826209 -9.026126645e-05 )
( -0.0009594805306 0.0007847211673 -0.0001188981405 )
( -0.0009911927627 0.0008014630293 -0.0001181957341 )
( -0.0009775515646 0.0007854788564 -0.0001162964327 )
( 0.02782478929 0.001100259018 2.973703886e-05 )
( -0.0001426598465 0.0001298424031 -5.367306949e-05 )
( -0.0001431125274 0.0001311795786 -5.326421888e-05 )
( -4.650180199e-05 4.23861311e-05 -1.967176104e-05 )
( -8.838689973e-05 8.05855816e-05 -3.524640488e-05 )
( -4.638003156e-05 4.260868809e-05 -1.937514935e-05 )
( -8.813528984e-05 7.989298319e-05 -3.543653293e-05 )
( -1.954024629e-05 1.951161175e-05 -8.804920071e-06 )
( -1.966191303e-05 1.962788883e-05 -8.891505786e-06 )
( -0.0001391325786 0.0001276350959 -5.41067493e-05 )
( -0.0001382956107 0.0001261441794 -5.447358126e-05 )
( -0.0001344913762 0.0001237798715 -5.482317647e-05 )
( -0.0002060102415 0.0001910326537 -7.501999789e-05 )
( -0.0001335334819 0.0001226534514 -5.525800589e-05 )
( -0.000204197233 0.0001870842825 -7.504042151e-05 )
( 0.02576666512 0.0008346606046 -6.171569839e-05 )
( 0.02274069004 0.0005383620155 -7.05970233e-05 )
( 0.02693661489 0.001006850158 -1.483942287e-05 )
( 0.01174016856 -2.718313954e-05 -6.898482388e-05 )
( 0.01785126701 0.0001283374586 -5.469351527e-05 )
( 0.02742427588 0.001060541836 2.496032175e-05 )
( 0.008159269579 3.789380571e-06 -8.908867312e-05 )
( 0.00550512271 0.0001477951009 -0.0001032680739 )
( 0.00297927903 0.0003898613795 -0.000123085978 )
( -0.0007824318018 0.0009734618943 -0.0001509547437 )
( 0.0003347210004 0.000720067299 -0.0001387651864 )
( 0.0276359953 0.001046651159 4.194872963e-05 )
( -0.001994194929 0.001336164773 -0.0001583799021 )
( -0.00194435427 0.001290881657 -0.000155960588 )
( -0.001741806744 0.00119868957 -0.000151527347 )
( -0.001441900735 0.001101333299 -0.000146505583 )
( -0.001550051966 0.001102061127 -0.0001379032619 )
( -0.001514630509 0.001103563933 -0.000135762908 )
( -0.001869684085 0.001272848225 -0.000150839347 )
( -0.001862150617 0.001254672417 -0.0001508121495 )
( -0.001580001554 0.00108139473 -0.000140525357 )
( -0.0009480325389 0.0007561448147 -0.0001146999857 )
( -0.0009259670042 0.0007273915107 -0.0001139598171 )
( -0.0009536322905 0.0007283421 -0.0001156477738 )
( -0.0009822951397 0.000730875181 -0.0001174724021 )
( -0.0001996515784 0.0001792343392 -7.457515312e-05 )
( -0.0001992538309 0.000182289863 -7.490061398e-05 )
( -0.0001974001643 0.0001764859044 -7.416708831e-05 )
( -0.0002005101414 0.0001752399403 -7.354495028e-05 )
( -0.0002099510748 0.0001763264154 -7.212279888e-05 )
( -0.0003374909575 0.0002823781688 -8.814121975e-05 )
( -0.0005531418719 0.0004601446271 -0.0001030457206 )
( -0.0002023874549 0.0001749649964 -7.300041761e-05 )
( -0.0005643864279 0.0004622947308 -0.0001020376076 )
( -0.0005844108528 0.0004765938793 -0.000101763464 )
( -0.0006113575073 0.0004951173905 -0.0001021715361 )
( 0.02784632333 0.001295502414 3.316506263e-05 )
( 0.02767642401 0.001123863971 4.804892524e-05 )
( -8.584452007e-05 7.777290011e-05 -3.584869773e-05 )
( -8.599954162e-05 7.847777306e-05 -3.562408165e-05 )
( -1.93565902e-05 1.943274037e-05 -9.15704004e-06 )
( -4.550804078e-05 4.188159437e-05 -1.984109986e-05 )
( -1.921772127e-05 1.940476614e-05 -9.018264791e-06 )
( -4.553085819e-05 4.157953663e-05 -1.997150866e-05 )
( -8.360912761e-05 7.635929796e-05 -3.621197538e-05 )
( -8.325507952e-05 7.559872029e-05 -3.645298784e-05 )
( -8.071251796e-05 7.399820606e-05 -3.679198926e-05 )
( -0.0001287248451 0.0001195800724 -5.558349221e-05 )
( -7.993428881e-05 7.316315896e-05 -3.724762064e-05 )
( -0.0001265024184 0.0001158891901 -5.550784772e-05 )
( 0.02617079206 0.0009905135958 -5.860848978e-05 )
( 0.02711904049 0.001126670046 -5.715242878e-06 )
( 0.01828406379 0.0001783483895 -5.536640674e-05 )
( 0.02485687658 0.0008283151546 -7.837024168e-05 )
( 0.02274921164 0.0005589745706 -7.454687875e-05 )
( 0.02751321532 0.001163980109 3.415501487e-05 )
( 0.007482695859 5.768536357e-05 -8.950274059e-05 )
( 0.01239674725 -1.586787334e-06 -6.437985576e-05 )
( 0.002678975696 0.0004049628042 -0.0001177337399 )
( 0.004230253398 0.0002569289645 -0.0001047755068 )
( -0.001058711554 0.0009648134001 -0.0001370749669 )
( 0.0003715155763 0.0006690151058 -0.0001245226013 )
( -0.001882105833 0.00124674628 -0.0001520853548 )
( -0.00190429762 0.001245872118 -0.0001520893857 )