/*--------------------------------*- C++ -*----------------------------------*\
  =========                 |
  \\      /  F ield         | OpenFOAM: The Open Source CFD Toolbox
   \\    /   O peration     | Website:  https://openfoam.org
    \\  /    A nd           | Version:  8
     \\/     M anipulation  |
\*---------------------------------------------------------------------------*/






FoamFile
{
    version     2.0;
    format      ascii;
    class       volScalarField;
    location    "0";
    object      pDDES;
}
// * * * * * * * * * * * * * * * * * * * * * * * * * * * * * * * * * * * * * //

dimensions      [0 2 -2 0 0 0 0];


internalField   nonuniform List<scalar> 
15041
(
-0.001899753581
-0.001902016345
-0.001888520434
-0.001903535565
-0.001891948283
-0.001880105934
-0.001903806813
-0.001894933288
-0.00188389793
-0.001872597728
-0.001903359545
-0.001896682428
-0.001887509134
-0.001876583789
-0.001865923055
-0.001902756398
-0.001897580456
-0.001890101004
-0.001880554832
-0.001869994099
-0.001859886688
-0.001902338117
-0.001898081391
-0.001891866676
-0.00188366347
-0.00187414838
-0.001863986021
-0.00185440015
-0.001902309363
-0.001898434479
-0.001893114066
-0.001885999576
-0.001877533738
-0.001868251944
-0.001858443138
-0.001849467284
-0.001902499003
-0.001898871968
-0.001894094516
-0.00188778236
-0.001880226075
-0.001871817512
-0.001862735022
-0.001853402355
-0.001845063525
-0.001902970136
-0.001899291878
-0.001894938527
-0.001889199484
-0.001882394077
-0.001874736976
-0.001866404549
-0.001857626252
-0.001848880085
-0.001841122634
-0.001903573517
-0.001899698866
-0.001895682653
-0.001890386455
-0.001884136116
-0.001877127565
-0.001869476167
-0.001861306373
-0.001853009337
-0.00184480031
-0.001837613177
-0.001904207049
-0.001900140313
-0.001896319445
-0.001891391585
-0.001885578502
-0.00187906716
-0.001872009831
-0.001864462043
-0.001856640447
-0.001848830725
-0.001841122168
-0.001834448194
-0.001900518779
-0.001904738136
-0.001896825153
-0.001892224187
-0.001886780374
-0.001880690688
-0.00187410682
-0.001867113286
-0.001859806711
-0.001852407819
-0.001845032792
-0.001837807707
-0.001831549685
-0.001897192444
-0.001900700503
-0.001905105077
-0.001892841305
-0.001887753839
-0.001882037846
-0.001875872724
-0.001869354397
-0.001862532459
-0.001855542418
-0.00184856134
-0.001841572928
-0.001834793482
-0.001828937442
-0.001893260167
-0.001897316659
-0.001900763484
-0.001905352226
-0.001888454659
-0.001883107703
-0.00187732745
-0.001871236833
-0.00186486938
-0.001858282834
-0.001851679874
-0.001845044666
-0.001838437747
-0.001832057722
-0.001826182473
-0.001893383451
-0.001888910891
-0.001897201058
-0.001900558127
-0.001905173063
-0.001883885474
-0.001878483919
-0.001872784225
-0.001866836334
-0.001860662247
-0.001854408998
-0.001848155051
-0.001841829973
-0.001835630741
-0.001829346758
-0.001823624829
-0.001824787934
-0.001893220819
-0.001889061765
-0.001884394675
-0.001896790462
-0.001899973955
-0.001904529869
-0.001879346673
-0.001874028472
-0.001868469059
-0.001862692181
-0.001856778283
-0.00185089407
-0.001844924293
-0.001838957425
-0.001832909882
-0.001826817868
-0.001828401
-0.001821612706
-0.001822788268
-0.001892720349
-0.001888904721
-0.001884602243
-0.001879918622
-0.00189596368
-0.001898985123
-0.001903248951
-0.001874971204
-0.001869788161
-0.001864391612
-0.001858825795
-0.001853262307
-0.001847668434
-0.001842003432
-0.001836197567
-0.001830460504
-0.001831934787
-0.001825315645
-0.001827001455
-0.00182022783
-0.001821225975
-0.001891803229
-0.001888398314
-0.001884483965
-0.001880187774
-0.001875604969
-0.001894741668
-0.001897436101
-0.001901329495
-0.001870789914
-0.001865759026
-0.001860557124
-0.001855303766
-0.001850065426
-0.00184474641
-0.001839182689
-0.001833819901
-0.001835143194
-0.001828728477
-0.001830359921
-0.00182401808
-0.001825735439
-0.001819401281
-0.001820770558
-0.001890487387
-0.001887493767
-0.001884019002
-0.001880133175
-0.001875930466
-0.001871474902
-0.001893030596
-0.001895365305
-0.001898738323
-0.001866804436
-0.001861962839
-0.001857032068
-0.001852125395
-0.001847161795
-0.00184189179
-0.001836829586
-0.001838019467
-0.001832030946
-0.001833547489
-0.001827345695
-0.001828978304
-0.001822976861
-0.001824541949
-0.001818097197
-0.001820290694
-0.001888737781
-0.001886185491
-0.00188317406
-0.001879734686
-0.001875935937
-0.001871847198
-0.001867536921
-0.001890836284
-0.001892716391
-0.00189534598
-0.001863051089
-0.001858450705
-0.0018538679
-0.001849255292
-0.00184431579
-0.001839565928
-0.001840654993
-0.001835060655
-0.001836411888
-0.001830613241
-0.001832185313
-0.00182618876
-0.001827860717
-0.001822418533
-0.001824048813
-0.001818042365
-0.001819818164
-0.001886519836
-0.001884477562
-0.001881941222
-0.001878970885
-0.001875603106
-0.00187190203
-0.001867954852
-0.001863826066
-0.001888167346
-0.001889510429
-0.001891698805
-0.001859565848
-0.001855290262
-0.001851019682
-0.001846425119
-0.001842044992
-0.001843008678
-0.001837766031
-0.001838991768
-0.001833704999
-0.001835109782
-0.001829490182
-0.001831073314
-0.001825692831
-0.001827356755
-0.001821528771
-0.001823295141
-0.001818141202
-0.001819910482
-0.001883871504
-0.001882337383
-0.001880324911
-0.00187783502
-0.001874918817
-0.001871628338
-0.001868054969
-0.001864283578
-0.001860372955
-0.001884973375
-0.001885765814
-0.001887124265
-0.001856406103
-0.001852461719
-0.001848219661
-0.001844220678
-0.001845052349
-0.001840226701
-0.00184132962
-0.001836440992
-0.001837694435
-0.001832597423
-0.001834033639
-0.001828975976
-0.001830555499
-0.001824975247
-0.001826656517
-0.001821467071
-0.001823183964
-0.001818075543
-0.001819764497
-0.001880754717
-0.00187978358
-0.001878297771
-0.001876329305
-0.001873876434
-0.001871017739
-0.001867826213
-0.001864422578
-0.00186086027
-0.001857220777
-0.001881274628
-0.001881456235
-0.001881856937
-0.001853600028
-0.001849686727
-0.001846089843
-0.001846794738
-0.001842417754
-0.001843358972
-0.001839372911
-0.001840489218
-0.001835363568
-0.00183662679
-0.00183207728
-0.001833526068
-0.001828291803
-0.001829879126
-0.00182489201
-0.001826581312
-0.001821273938
-0.001823165338
-0.001818336663
-0.001820087084
-0.001877191593
-0.001876798575
-0.001875876449
-0.001874440582
-0.00187248108
-0.00187006162
-0.001867269631
-0.001864237012
-0.001861030469
-0.00185772602
-0.001854430884
-0.001877129893
-0.001876666211
-0.001876373077
-0.001850845758
-0.001847649342
-0.001848215936
-0.001844288781
-0.001845087158
-0.001841536839
-0.001842491212
-0.001838330878
-0.001839431585
-0.001834868104
-0.001836128067
-0.001831406844
-0.001832873095
-0.001828222652
-0.001829812885
-0.001824880368
-0.001826571533
-0.001821450889
-0.001823170343
-0.001873235451
-0.001873419038
-0.00187306595
-0.00187217514
-0.001870724722
-0.001868755673
-0.001866384177
-0.001863725367
-0.001860882621
-0.001857919735
-0.001854951843
-0.001851690118
-0.001872575842
-0.001871450571
-0.001870587235
-0.00184888579
-0.001849313499
-0.001845861087
-0.001846510917
-0.001843377831
-0.001844179817
-0.001840481535
-0.001841450692
-0.001837825403
-0.00183891959
-0.001834238763
-0.001835506293
-0.001831342466
-0.001832812326
-0.001828214619
-0.001829805551
-0.001824886422
-0.001826577587
-0.00186891621
-0.001869675005
-0.001869879663
-0.001869538566
-0.001868605614
-0.001867099432
-0.001865161816
-0.001862890436
-0.001860412303
-0.001857803087
-0.001855164766
-0.001852227375
-0.001849800115
-0.001850097557
-0.001867655199
-0.001865886268
-0.00186406821
-0.001847133273
-0.001847621286
-0.001844910323
-0.001845566672
-0.001842327649
-0.001843134407
-0.00183996174
-0.001840938698
-0.001837241231
-0.001838334603
-0.001834180555
-0.001835450879
-0.001831335248
-0.001832806738
-0.001828221488
-0.001829811488
-0.001864245627
-0.001865578233
-0.001866336097
-0.001866535167
-0.001866121544
-0.001865101047
-0.001863589045
-0.001861729193
-0.001859619864
-0.001857372001
-0.001855072333
-0.001852459973
-0.001850408386
-0.00185057614
-0.001848075539
-0.001848405111
-0.001862384612
-0.001860030461
-0.001857803785
-0.001846156432
-0.001846659463
-0.001843870152
-0.001844516257
-0.001841821941
-0.001842626836
-0.001839370583
-0.001840353361
-0.001837186748
-0.001838281867
-0.0018341752
-0.001835445641
-0.001831341884
-0.001832811977
-0.001859249314
-0.001861141413
-0.001862442819
-0.001863184036
-0.001863291487
-0.001862753299
-0.001861687168
-0.001860236051
-0.001858512638
-0.001856628223
-0.001854672562
-0.001852387795
-0.001850714325
-0.001850753091
-0.001848701737
-0.00184887636
-0.0018470824
-0.001847421052
-0.001856843941
-0.001853929367
-0.001851200825
-0.001845087972
-0.001845599618
-0.001843363512
-0.00184402091
-0.001841249876
-0.00184205838
-0.001839317847
-0.001840302022
-0.001837182906
-0.001838278957
-0.001834180555
-0.001835451112
-0.001854042639
-0.001856430667
-0.001858251169
-0.001859509852
-0.001860132907
-0.001860080753
-0.001859462238
-0.001858428353
-0.001857101568
-0.001855586423
-0.001853969763
-0.001852012239
-0.001850715838
-0.001850625733
-0.001849019551
-0.00184904621
-0.001847684849
-0.001847868552
-0.001846033148
-0.001846382162
-0.001851160778
-0.001847813837
-0.001844711369
-0.001844591927
-0.001845092513
-0.001842799131
-0.001843465026
-0.001841199351
-0.001842009486
-0.001839315752
-0.001840299461
-0.001836651238
-0.00183778163
-0.001848675893
-0.001851540059
-0.00185383053
-0.001855570707
-0.001856685965
-0.001857111929
-0.00185694336
-0.001856332994
-0.001855400391
-0.001854254631
-0.001852970803
-0.001851342153
-0.001850415138
-0.001850198489
-0.001849039923
-0.001848919434
-0.001847976353
-0.001848006737
-0.00184664852
-0.00184684142
-0.001845525694
-0.001845881459
-0.00184533326
-0.001841596095
-0.001837935997
-0.001844048733
-0.001844548038
-0.001842752215
-0.001843419159
-0.001841193996
-0.001842004946
-0.001839312725
-0.001840295852
-0.001843131497
-0.001846453408
-0.001849214779
-0.00185142085
-0.001853003167
-0.001853889087
-0.001854159986
-0.001853964757
-0.001853422844
-0.001852634363
-0.001851684414
-0.001850379515
-0.001849820837
-0.00184948172
-0.001848765416
-0.00184850092
-0.001847970998
-0.001847854932
-0.001846949919
-0.001846984844
-0.001846156782
-0.001846351894
-0.001844978426
-0.001845336752
-0.001839407254
-0.001835385803
-0.001842233702
-0.001831501839
-0.00184400368
-0.001844505779
-0.001842747442
-0.001843414968
-0.001841189573
-0.00184200122
-0.001837524236
-0.00184120459
-0.00184437749
-0.001847044448
-0.001849084161
-0.001850423636
-0.001851124689
-0.001851333538
-0.001851168578
-0.001850732835
-0.001850115252
-0.001849130029
-0.001848938409
-0.0018484795
-0.001848197076
-0.001847789506
-0.001847674372
-0.001847411622
-0.001846948289
-0.001846838975
-0.001846469706
-0.001846510684
-0.00184562197
-0.00184582884
-0.001844937215
-0.001845296822
-0.001833499526
-0.001829143148
-0.00183555705
-0.001846210682
-0.001843067585
-0.001825247891
-0.001844000188
-0.001844501821
-0.001842743717
-0.001843115082
-0.001831911854
-0.001835910487
-0.001839414821
-0.001842453377
-0.001844929298
-0.001846701489
-0.001847828971
-0.001848436426
-0.001848641317
-0.001848552376
-0.001848264714
-0.001847598935
-0.001847771346
-0.001847187406
-0.001847340725
-0.001846788102
-0.001847080886
-0.001846674364
-0.001846654923
-0.001846396131
-0.001846476924
-0.001846370404
-0.001845953171
-0.001846004161
-0.001845582505
-0.001845791237
-0.001844932674
-0.001845292747
-0.001827582484
-0.001823121682
-0.001826513209
-0.001839204459
-0.001836172654
-0.00185324403
-0.001849496737
-0.001819088822
-0.001843996695
-0.00184449926
-0.001826284453
-0.001830561203
-0.001834413968
-0.00183775695
-0.001840595622
-0.001842762227
-0.001844285405
-0.001845279941
-0.001845849212
-0.001846099505
-0.001846138504
-0.001845787046
-0.001846313127
-0.001845607767
-0.001846189378
-0.001845492283
-0.001846197876
-0.001845640596
-0.00184606167
-0.001845652587
-0.001846187282
-0.001845928025
-0.001845977153
-0.001845877385
-0.001845917432
-0.001845969236
-0.00184557843
-0.001845788676
-0.001844930463
-0.001845290884
-0.001821771497
-0.001817145152
-0.001832422102
-0.001829500077
-0.001820245408
-0.001845800201
-0.001842171187
-0.001856463263
-0.001852615038
-0.001820733072
-0.001825221581
-0.001829315908
-0.00183300674
-0.001836165087
-0.001838674769
-0.001840556739
-0.001841907273
-0.001842825441
-0.001843407517
-0.001843760023
-0.001843723352
-0.001843769453
-0.001844577258
-0.001844757469
-0.001843926497
-0.001845020102
-0.001844329759
-0.001845172956
-0.001844629413
-0.00184559566
-0.001845190767
-0.001845699386
-0.001845445717
-0.001845944906
-0.001845846069
-0.001845916384
-0.001845968189
-0.001845453866
-0.001845700317
-0.001815977274
-0.001837343443
-0.001833911985
-0.001825862331
-0.001823062776
-0.001848813845
-0.001843451522
-0.001859396463
-0.001855435898
-0.001819922705
-0.001815163298
-0.001824248349
-0.001828156877
-0.001831634203
-0.001834491966
-0.001836699666
-0.001838376862
-0.001839611679
-0.00184050214
-0.001841154881
-0.001841416582
-0.001842604019
-0.001841697842
-0.00184212951
-0.001843078295
-0.001843584236
-0.001842766069
-0.001844023122
-0.001843346399
-0.001844723243
-0.001844193088
-0.001845119987
-0.001844731509
-0.001845668885
-0.00184541638
-0.001845943742
-0.001845845021
-0.00184586714
-0.001845953986
-0.001839896664
-0.001836386742
-0.001830522669
-0.001827154541
-0.001851596404
-0.001846115571
-0.001819188357
-0.001814589719
-0.001823342522
-0.001827022294
-0.001830174006
-0.001832724549
-0.001834720606
-0.001836260548
-0.001837438322
-0.00183836522
-0.001838902477
-0.001839387114
-0.001840394107
-0.001841146499
-0.001840112731
-0.001840976882
-0.001841930323
-0.001842605066
-0.001841809717
-0.001843590173
-0.001842915546
-0.001844279235
-0.001843759092
-0.001845091349
-0.001844706014
-0.00184566807
-0.001845415914
-0.001845944673
-0.001845845953
-0.001842469675
-0.001838869881
-0.001832879614
-0.001829405315
-0.001818502555
-0.001814093557
-0.001822434366
-0.00182579807
-0.001828613924
-0.001830911846
-0.001832758309
-0.00183422491
-0.001835422823
-0.001836226322
-0.001836898387
-0.001837965916
-0.001837819815
-0.001838980592
-0.001839990844
-0.00183894916
-0.001840016805
-0.001840949175
-0.001842186437
-0.001841395628
-0.001843156992
-0.001842494588
-0.001844254439
-0.001843735226
-0.001845091349
-0.00184470613
-0.001845668652
-0.001845418243
-0.001835242379
-0.001831635484
-0.00181779929
-0.001813636161
-0.001821420621
-0.001824463718
-0.001826997614
-0.001829096465
-0.001830832218
-0.00183229812
-0.001833373564
-0.0018354028
-0.00183425867
-0.001835407689
-0.001836632378
-0.001836669166
-0.001837811433
-0.00183902937
-0.001837989548
-0.001839610399
-0.00184053625
-0.001841777004
-0.001840994461
-0.001843133941
-0.001842473168
-0.001844254788
-0.001843736274
-0.001845093444
-0.00184470776
-0.00181314419
-0.001816981006
-0.00182027847
-0.001823054394
-0.001825364074
-0.001827313099
-0.001829000073
-0.00183031254
-0.001832632348
-0.001831381582
-0.001834141556
-0.001832784619
-0.001834288007
-0.001835500589
-0.00183579314
-0.001836913754
-0.001838631579
-0.001837606425
-0.001839655684
-0.001840137644
-0.001842099708
-0.001841348247
-0.001843425212
-0.001842787489
-0.001844257582
-0.001843985869
-0.001812535804
-0.001816021511
-0.001819040743
-0.001821590238
-0.001823744387
-0.001825616346
-0.00182712893
-0.001829634071
-0.001828337321
-0.001831380418
-0.001829925459
-0.001832998241
-0.001831623726
-0.001833430259
-0.001834647497
-0.001835432951
-0.001836540992
-0.001838255674
-0.001837249263
-0.001839639852
-0.001840120181
-0.001842101105
-0.001841349527
-0.001843423117
-0.001842785394
-0.001811786206
-0.001814945252
-0.001817723038
-0.001820097561
-0.001822175924
-0.001823873143
-0.001826541731
-0.001825218322
-0.001828452805
-0.001826956635
-0.001830223715
-0.001828784589
-0.001832119655
-0.00183077273
-0.001833068323
-0.001834294293
-0.001835100586
-0.001836193958
-0.001838241704
-0.001837236807
-0.001839642297
-0.001840121462
-0.00184209994
-0.001841347781
-0.001810910413
-0.001813786221
-0.00181634957
-0.001818627352
-0.001820525271
-0.001823385246
-0.001822014223
-0.001825440908
-0.0018239083
-0.001827338594
-0.00182585814
-0.001829386922
-0.001827976899
-0.001831761561
-0.001830425928
-0.001832737122
-0.001833966933
-0.001835089992
-0.001836181385
-0.001838245662
-0.001837240648
-0.00183964055
-0.001840126235
-0.001809932874
-0.001812574686
-0.001814977382
-0.001817055512
-0.001820117701
-0.001818690216
-0.001822345308
-0.001820756588
-0.001824362669
-0.001823528786
-0.001826542662
-0.00182508619
-0.001829048619
-0.001827653497
-0.001831441885
-0.001830119058
-0.001832727925
-0.001833957387
-0.001835094532
-0.001836185809
-0.001838252181
-0.001837247051
-0.001808886998
-0.001811354887
-0.001813518582
-0.00181671069
-0.001815235126
-0.001819132711
-0.00181746739
-0.001821985119
-0.001820416073
-0.001823618426
-0.001822106307
-0.001826219726
-0.001825466985
-0.001828752807
-0.001827372354
-0.001831433387
-0.001830111491
-0.001832731999
-0.001833961345
-0.001835101168
-0.001836192096
-0.001807814231
-0.001810035203
-0.001813238719
-0.001811786206
-0.001815759111
-0.001814072137
-0.001818823861
-0.001817162964
-0.001820563455
-0.001819751575
-0.001823319937
-0.001821813523
-0.001826615771
-0.001825183397
-0.001828745706
-0.00182736502
-0.001831437927
-0.001830115914
-0.001832739916
-0.001833967515
-0.001806615386
-0.00180982647
-0.001808411791
-0.001812377712
-0.001810706221
-0.001815470052
-0.001813809271
-0.001818152843
-0.001816512551
-0.00182028173
-0.001818719902
-0.001823068364
-0.001822273713
-0.001826609252
-0.001825178624
-0.00182875013
-0.001828013337
-0.001831445727
-0.001830122783
-0.001806483255
-0.001805052278
-0.001809049398
-0.001807418768
-0.001812146278
-0.001810486778
-0.001814058283
-0.001813201583
-0.001817879267
-0.00181624142
-0.001820049132
-0.00181849103
-0.001823064173
-0.001821565675
-0.001826612977
-0.001825182233
-0.001828757115
-0.001828010543
-0.001805755892
-0.001804097323
-0.001808146713
-0.001806514105
-0.001810789458
-0.001809170935
-0.001814580755
-0.001812956994
-0.001816879958
-0.00181600207
-0.001820046455
-0.001818488701
-0.001823068014
-0.001822273945
-0.001826609485
-0.001825179439
-0.001804871601
-0.001803198596
-0.001807571738
-0.001805955661
-0.001811331487
-0.001809711102
-0.001813605661
-0.001811992959
-0.001816877862
-0.001815999276
-0.001820049831
-0.00181849231
-0.001823075698
-0.001822268823
-0.001804326661
-0.001802655752
-0.001807354973
-0.001805745298
-0.001811128459
-0.001808779431
-0.001813604031
-0.001812741859
-0.001816881238
-0.001816002419
-0.001820056699
-0.001818499644
-0.001804119674
-0.001803252613
-0.001807188964
-0.001805585925
-0.001811126829
-0.00180877815
-0.001813607407
-0.001812745235
-0.00181688834
-0.001815996366
-0.001803962048
-0.001802297658
-0.001807187451
-0.001805584412
-0.001811129507
-0.001809518668
-0.001813614741
-0.001812740113
-0.001803960884
-0.001802296261
-0.001807189547
-0.00180558674
-0.001811124035
-0.001809512964
-0.00180396263
-0.001802297425
-0.001807196764
-0.001805593143
-0.001803969266
-0.001802304643
-0.00190050737
-0.001898470102
-0.0018958234
-0.001900655916
-0.00189639302
-0.001893745153
-0.001892916858
-0.001892978908
-0.001896529226
-0.001891638967
-0.001894295099
-0.001890910324
-0.001890846877
-0.001890427666
-0.001891364693
-0.001892277272
-0.001892173081
-0.00188871054
-0.001889516832
-0.00188877387
-0.001889280742
-0.001888322528
-0.001888214843
-0.001889099833
-0.001890046638
-0.001887943014
-0.001887895633
-0.001887390157
-0.001886643935
-0.001886181766
-0.001886579907
-0.001887142425
-0.001887007849
-0.001886106562
-0.001886643935
-0.001887671417
-0.001885257778
-0.001883486169
-0.001883493504
-0.001885714242
-0.001883085119
-0.001884417143
-0.001884480938
-0.001885013422
-0.001883957535
-0.001884021913
-0.001884844271
-0.001885565696
-0.001884516212
-0.001885907375
-0.001886951621
-0.001882345183
-0.001882279757
-0.001881227246
-0.001878898824
-0.001878927811
-0.001878597657
-0.001880860305
-0.001880062744
-0.001880129799
-0.00188184937
-0.001882823301
-0.001882682671
-0.001882338896
-0.001881769975
-0.001883413526
-0.001884842291
-0.001883772202
-0.001884529367
-0.001885581994
-0.001880676835
-0.001879685558
-0.001876294031
-0.001874243026
-0.001874271547
-0.001876604045
-0.001873971429
-0.001875525108
-0.001875594375
-0.001877872972
-0.001877804636
-0.001877431292
-0.00187844655
-0.001879562391
-0.001880471944
-0.001881219097
-0.001881583943
-0.001880132011
-0.001882678596
-0.001883453457
-0.001882372773
-0.001883067773
-0.001884135185
-0.001878287178
-0.001877346076
-0.001873307163
-0.001873236499
-0.00187191437
-0.001869500615
-0.001869530999
-0.001869268366
-0.00187162892
-0.001870877692
-0.001870947308
-0.001872887951
-0.001873897389
-0.001876176917
-0.001875165966
-0.001875096466
-0.00187604595
-0.001877924427
-0.001879013842
-0.001880473108
-0.001880170545
-0.001879370073
-0.001881271717
-0.001881986391
-0.001880895114
-0.001881124685
-0.001882206183
-0.001876791008
-0.001875683432
-0.001871602843
-0.00187054323
-0.001866867417
-0.001864763326
-0.001864736667
-0.00186712353
-0.001864441438
-0.001866102684
-0.001866174396
-0.001868594671
-0.001868523774
-0.001868181513
-0.001869228901
-0.00187050947
-0.001871515531
-0.001873788657
-0.001872822409
-0.00187343522
-0.001874542912
-0.001877154456
-0.001878254698
-0.001879059244
-0.001878684037
-0.001877949806
-0.001879788819
-0.001880034804
-0.001878932351
-0.001880587079
-0.001881671371
-0.001876024762
-0.001874909969
-0.001869197935
-0.001868160674
-0.001863777637
-0.001863705227
-0.001862366567
-0.001860167366
-0.001860042918
-0.001859592623
-0.001862004981
-0.001861265162
-0.001861338154
-0.001863331883
-0.001864440273
-0.001866885112
-0.001865782542
-0.00186579139
-0.001866780105
-0.001868836815
-0.001869982225
-0.001872281195
-0.001871156273
-0.001872655004
-0.00187378109
-0.001875716844
-0.001876830822
-0.001877568662
-0.001876705792
-0.001876455033
-0.001877820352
-0.001879492425
-0.001878384268
-0.00188026973
-0.001881356817
-0.001874595182
-0.001873473171
-0.001867638435
-0.001866465434
-0.001862031291
-0.001860955497
-0.00185720576
-0.001855731243
-0.001855491777
-0.001857747557
-0.001854870468
-0.001856402261
-0.001856474206
-0.001858903794
-0.001858831034
-0.001858503791
-0.001859616605
-0.001860957476
-0.001861960976
-0.00186439231
-0.001863385434
-0.00186406076
-0.001865247148
-0.001868045889
-0.001869204571
-0.001871510409
-0.001870367443
-0.00187119632
-0.001872335793
-0.001874217414
-0.001875334303
-0.001875587273
-0.001876154449
-0.001874471316
-0.001877271337
-0.001879171701
-0.00187806075
-0.001880110009
-0.001881197561
-0.001873089466
-0.001871956978
-0.001866857754
-0.001865671366
-0.001859561075
-0.001858573407
-0.001854087692
-0.001854016911
-0.001853280235
-0.001851428766
-0.001851103618
-0.001850296627
-0.001852568355
-0.001851666602
-0.00185173552
-0.001853633439
-0.001854722155
-0.001857152907
-0.001856063493
-0.001856099232
-0.001857139403
-0.001859220909
-0.001860414632
-0.001862833509
-0.001861645258
-0.00186326378
-0.001864464954
-0.00186655717
-0.001867723884
-0.001870041131
-0.001868889434
-0.001869655447
-0.001870808657
-0.001872218447
-0.001873349072
-0.00187503593
-0.00187582639
-0.001873918576
-0.001876945025
-0.001879009185
-0.001877897535
-0.0018800447
-0.001881133416
-0.001871075248
-0.001869924832
-0.001865367638
-0.001864174148
-0.001857995056
-0.001856799005
-0.001852323068
-0.001851234469
-0.001848052954
-0.001847134088
-0.00184680114
-0.00184895203
-0.001845825929
-0.001847056323
-0.001847124659
-0.001849436783
-0.001849367749
-0.001848900574
-0.001849939465
-0.001851188717
-0.001852199668
-0.001854661619
-0.001853637397
-0.001854334492
-0.001855546376
-0.001858417178
-0.001859624637
-0.001862048171
-0.001860843622
-0.001861763536
-0.001862969366
-0.001864984399
-0.001866158098
-0.001868492574
-0.001867331332
-0.001867600717
-0.001868766383
-0.001871655229
-0.001872790861
-0.001874708454
-0.001875658054
-0.001873588422
-0.001876780181
-0.001878943527
-0.001877831994
-0.001880026306
-0.001881114324
-0.001870508073
-0.001869355561
-0.001863789628
-0.001862593461
-0.001857195515
-0.001855978277
-0.001849797089
-0.001848798478
-0.001844857703
-0.001844789716
-0.001844643033
-0.001842789236
-0.001842463855
-0.00184144883
-0.001843627309
-0.001842545113
-0.001842611819
-0.001844252925
-0.001845297171
-0.001847638865
-0.001846570987
-0.001846442465
-0.001847416162
-0.001849428751
-0.001850617467
-0.001853064634
-0.001851867652
-0.001853508991
-0.001854741015
-0.001856904477
-0.001858115895
-0.001860546763
-0.001859335229
-0.001860175515
-0.001861384022
-0.001862877514
-0.001864062855
-0.001866423409
-0.001865246217
-0.00186702155
-0.001868193503
-0.001871316927
-0.001872456982
-0.001874540932
-0.001875590417
-0.001873417757
-0.001876713475
-0.001878924202
-0.001877811388
-0.001880024094
-0.001881113392
-0.001870168606
-0.001869013999
-0.001861677738
-0.00186047086
-0.001855679555
-0.001854454866
-0.001848211745
-0.001847038628
-0.001843006932
-0.001841980731
-0.001839276287
-0.00183850748
-0.0018381665
-0.00184030144
-0.001837098389
-0.001838125754
-0.00183819083
-0.001840403071
-0.001840337529
-0.001839744858
-0.001840751152
-0.001841800637
-0.001842755824
-0.001845089952
-0.001844111481
-0.001844672486
-0.001845832448
-0.001848612796
-0.00184981944
-0.001852266258
-0.001851043198
-0.001851988141
-0.001853220398
-0.001855299459
-0.001856518094
-0.001858955366
-0.001857740339
-0.001858042087
-0.00185925758
-0.001862283447
-0.001863474259
-0.001865840866
-0.001864658669
-0.001866675797
-0.001867848681
-0.001871143468
-0.001872285269
-0.0018744712
-0.001875569113
-0.001873347443
-0.001876693335
-0.001878921641
-0.001877808128
-0.001869994332
-0.001868838444
-0.00186108076
-0.00185987202
-0.001854071161
-0.001852845773
-0.001847404754
-0.001846212544
-0.001840458019
-0.001839508535
-0.001836002572
-0.001835937612
-0.001836035633
-0.001834275667
-0.001833915478
-0.001832782174
-0.001834929571
-0.001833775314
-0.001833839691
-0.001835298026
-0.001836306183
-0.001838535769
-0.001837519696
-0.001837254036
-0.00183818955
-0.001840028679
-0.001841171412
-0.00184348505
-0.001842338825
-0.001843845705
-0.001845018589
-0.001847082633
-0.001848295564
-0.001850751112
-0.001849526307
-0.001850386383
-0.001851612353
-0.001853145426
-0.001854370115
-0.001856821007
-0.001855597366
-0.00185744022
-0.001858654898
-0.001861925703
-0.001863121521
-0.00186549325
-0.001864309772
-0.001866497565
-0.001867671963
-0.001871071756
-0.001872213441
-0.001874450711
-0.001875566319
-0.001873326371
-0.001876688097
-0.001869921223
-0.0018687665
-0.001860721037
-0.001859507989
-0.001851922134
-0.001850696746
-0.001845867955
-0.001844673883
-0.00183886732
-0.001837745192
-0.001834108378
-0.001833111863
-0.001830662834
-0.001830009045
-0.001829675166
-0.001831801143
-0.001828541281
-0.001829455956
-0.001829519868
-0.001831676578
-0.001831611968
-0.001830958994
-0.001831940142
-0.001832831535
-0.001833722112
-0.001835947391
-0.001835026313
-0.001835474744
-0.001836593729
-0.001839200733
-0.001840346842
-0.001842670841
-0.001841512392
-0.001842305064
-0.001843482489
-0.00184546574
-0.001846685773
-0.001849150984
-0.001847919775
-0.001848234562
-0.001849464374
-0.001852538786
-0.00185376138
-0.001856216812
-0.001854992122
-0.001857075491
-0.001858292846
-0.001861741766
-0.001862940378
-0.001865315135
-0.001864130376
-0.001866423409
-0.001867598039
-0.001871048938
-0.001872192603
-0.001874445705
-0.001873321249
-0.001869898289
-0.001868741121
-0.001860533492
-0.001859321259
-0.001851315959
-0.001850088942
-0.001844253507
-0.001843056874
-0.001838051714
-0.001836915733
-0.001831536647
-0.001830644556
-0.001827401342
-0.001827338245
-0.001827528467
-0.001825716579
-0.001825383632
-0.001824264182
-0.001826392952
-0.001825185842
-0.001825249754
-0.001826639753
-0.001827617059
-0.001829785877
-0.001828795765
-0.001828467124
-0.00182935968
-0.00183106726
-0.001832137583
-0.001834336435
-0.001833247254
-0.001834645867
-0.001835770439
-0.001837660908
-0.001838808414
-0.001841131132
-0.001839969656
-0.001840682933
-0.001841863617
-0.001843315316
-0.001844531624
-0.001846998348
-0.001845763181
-0.001847624895
-0.001848857151
-0.001852174522
-0.001853397931
-0.001855854178
-0.001854627393
-0.001856888644
-0.001858104137
-0.001861665631
-0.001862864243
-0.001865240047
-0.001864054706
-0.00186639966
-0.00186757464
-0.0018710437
-0.00187218748
-0.001869891537
-0.001868734835
-0.001860455726
-0.001859242562
-0.001850950415
-0.001849721884
-0.001842102734
-0.001840898069
-0.001836507465
-0.001835364848
-0.001829962595
-0.001828883775
-0.001825492131
-0.001824525883
-0.001822132035
-0.001821446465
-0.001821122598
-0.001823263476
-0.001819998957
-0.001820884296
-0.001820949139
-0.001823075232
-0.001823009923
-0.001822354738
-0.001823347877
-0.001824153122
-0.001825028332
-0.001827193657
-0.001826302148
-0.001826698193
-0.001827773522
-0.001830237219
-0.001831322326
-0.001833516755
-0.001832418377
-0.001833103597
-0.001834224327
-0.001836036798
-0.001837189309
-0.001839505741
-0.001838346827
-0.001838516211
-0.001839698525
-0.00184270984
-0.001843927312
-0.001846388215
-0.001845154795
-0.001847257139
-0.001848489046
-0.001851987327
-0.001853210269
-0.001855665701
-0.001854438218
-0.001856810413
-0.001858026255
-0.001861641067
-0.001862840611
-0.001865216647
-0.001864030259
-0.001866395003
-0.001867568353
-0.001860431395
-0.001859218115
-0.001850762521
-0.001849532477
-0.001841495279
-0.001840286888
-0.001834883587
-0.001833738526
-0.001829140238
-0.001828048029
-0.001822890248
-0.001822021208
-0.001818805817
-0.00181874109
-0.001818979741
-0.001817172393
-0.00181684061
-0.001815739088
-0.001817876822
-0.001816625823
-0.001816689502
-0.001818030956
-0.001818987774
-0.001821135636
-0.001820163918
-0.001819836209
-0.00182074937
-0.001822374295
-0.001823432744
-0.001825593761
-0.001824525418
-0.00182585977
-0.00182694837
-0.001828698674