/*--------------------------------*- C++ -*----------------------------------*\
  =========                 |
  \\      /  F ield         | OpenFOAM: The Open Source CFD Toolbox
   \\    /   O peration     | Website:  https://openfoam.org
    \\  /    A nd           | Version:  8
     \\/     M anipulation  |
\*---------------------------------------------------------------------------*/






FoamFile
{
    version     2.0;
    format      ascii;
    class       volSymmTensorField;
    location    "0";
    object      TauDDES;
}
// * * * * * * * * * * * * * * * * * * * * * * * * * * * * * * * * * * * * * //

dimensions      [0 2 -2 0 0 0 0];


internalField   nonuniform List<symmTensor>
15041
(
( 3.008695967e-05 -1.467253423e-05 -8.114201933e-07 2.901924745e-05 2.212424306e-07 2.528073674e-05 )
( 2.940404374e-05 -1.38317846e-05 -8.011483033e-07 2.841275636e-05 1.902340472e-07 2.463874625e-05 )
( 3.105677024e-05 -1.496116238e-05 -7.651519809e-07 2.629529263e-05 3.268187356e-07 2.373670213e-05 )
( 2.908127135e-05 -1.307570255e-05 -6.909915555e-07 2.788726306e-05 1.958865994e-07 2.456442235e-05 )
( 3.03844572e-05 -1.440067172e-05 -7.036227316e-07 2.615630001e-05 3.095823047e-07 2.31730337e-05 )
( 3.113989442e-05 -1.456333302e-05 -4.32017373e-07 2.378770478e-05 3.679346605e-07 2.271250924e-05 )
( 2.894176032e-05 -1.243572842e-05 -5.957807616e-07 2.70477758e-05 2.127058423e-07 2.452621993e-05 )
( 2.985128958e-05 -1.378302295e-05 -6.135601325e-07 2.593855606e-05 2.922767521e-07 2.266820775e-05 )
( 3.054277477e-05 -1.416898886e-05 -4.432340006e-07 2.376114207e-05 3.618983442e-07 2.227361438e-05 )
( 3.052041939e-05 -1.3778832e-05 4.166695078e-08 2.142201265e-05 3.039050114e-07 2.120154386e-05 )
( 2.903788845e-05 -1.193563548e-05 -5.170604709e-07 2.609271178e-05 2.266870354e-07 2.452503395e-05 )
( 2.95380396e-05 -1.322528624e-05 -5.192429171e-07 2.558649794e-05 2.795055707e-07 2.227226832e-05 )
( 3.004249993e-05 -1.370565042e-05 -4.275288745e-07 2.37348504e-05 3.522140446e-07 2.182088974e-05 )
( 3.001305231e-05 -1.351262472e-05 -3.055254538e-08 2.145486178e-05 3.212995239e-07 2.09436057e-05 )
( 2.932278949e-05 -1.277183947e-05 4.759499177e-07 1.927680569e-05 1.265854337e-07 1.943417374e-05 )
( 2.929701623e-05 -1.159722615e-05 -4.510257554e-07 2.512123319e-05 2.397469814e-07 2.451137334e-05 )
( 2.938916805e-05 -1.273913585e-05 -4.293931966e-07 2.510352533e-05 2.684781748e-07 2.195342677e-05 )
( 2.970187234e-05 -1.327349128e-05 -3.87737515e-07 2.36276137e-05 3.429222204e-07 2.140484139e-05 )
( 2.956678691e-05 -1.318887189e-05 -9.459684946e-08 2.150667569e-05 3.322230668e-07 2.068058711e-05 )
( 2.888159361e-05 -1.259651617e-05 3.801575303e-07 1.93332562e-05 1.728674022e-07 1.925587276e-05 )
( 2.78567004e-05 -1.160660122e-05 7.432923894e-07 1.729371797e-05 -1.067520827e-07 1.764540502e-05 )
( 2.965227395e-05 -1.137256641e-05 -3.865602594e-07 2.418298209e-05 2.306876183e-07 2.446378858e-05 )
( 2.933320502e-05 -1.233180046e-05 -3.502118204e-07 2.452367698e-05 2.560021528e-07 2.169520667e-05 )
( 2.94747806e-05 -1.287793748e-05 -3.351661917e-07 2.341693107e-05 3.312093781e-07 2.101774226e-05 )
( 2.924774526e-05 -1.287501345e-05 -1.292027036e-07 2.15075961e-05 3.393146812e-07 2.040610161e-05 )
( 2.852055331e-05 -1.237650031e-05 2.772911785e-07 1.941817027e-05 2.153946781e-07 1.909218918e-05 )
( 2.747789586e-05 -1.150108437e-05 6.536472483e-07 1.736249942e-05 -4.317242741e-08 1.749448165e-05 )
( 2.616588972e-05 -1.030845306e-05 8.161914025e-07 1.545640407e-05 -3.094475858e-07 1.595054891e-05 )
( 3.013233982e-05 -1.123355833e-05 -3.456611637e-07 2.333971679e-05 2.174055993e-07 2.451239561e-05 )
( 2.935162956e-05 -1.200399129e-05 -2.804163728e-07 2.387632594e-05 2.47941415e-07 2.144818609e-05 )
( 2.93247158e-05 -1.25215447e-05 -2.80881693e-07 2.311531352e-05 3.163571023e-07 2.066418892e-05 )
( 2.901441985e-05 -1.257720578e-05 -1.392777733e-07 2.144167229e-05 3.42955218e-07 2.011549986e-05 )
( 2.823931209e-05 -1.215544762e-05 1.949157138e-07 1.94680797e-05 2.470886216e-07 1.892008731e-05 )
( 2.717241659e-05 -1.136381889e-05 5.509639323e-07 1.746867929e-05 2.452297743e-08 1.736132253e-05 )
( 2.584347567e-05 -1.025520123e-05 7.311264767e-07 1.552790673e-05 -2.510709862e-07 1.583294579e-05 )
( 2.406896783e-05 -8.934567632e-06 8.462054666e-07 1.376476939e-05 -4.125173234e-07 1.440301276e-05 )
( 3.067841681e-05 -1.117602642e-05 -3.308782084e-07 2.259641042e-05 2.049583827e-07 2.457287155e-05 )
( 2.945710912e-05 -1.172633893e-05 -2.17847969e-07 2.322095861e-05 2.273444863e-07 2.131892325e-05 )
( 2.921220585e-05 -1.220218019e-05 -2.30001703e-07 2.274123108e-05 2.98880849e-07 2.034185673e-05 )
( 2.886148286e-05 -1.229709778e-05 -1.320712499e-07 2.131182191e-05 3.420409485e-07 1.981989772e-05 )
( 2.80028562e-05 -1.194169181e-05 1.336458979e-07 1.947301462e-05 2.711604452e-07 1.872828034e-05 )
( 2.693869828e-05 -1.121788773e-05 4.584275359e-07 1.755105404e-05 8.088653658e-08 1.722512206e-05 )
( 2.557067273e-05 -1.018375224e-05 6.409489401e-07 1.564118975e-05 -1.822356097e-07 1.573448935e-05 )
( 2.382088678e-05 -8.911178156e-06 7.615046798e-07 1.383197468e-05 -3.706878715e-07 1.433871603e-05 )
( 2.166366903e-05 -7.583435945e-06 9.39149345e-07 1.221689035e-05 -4.240394844e-07 1.291647823e-05 )
( 3.144379662e-05 -1.120548677e-05 -3.614723312e-07 2.187113569e-05 1.710629363e-07 2.477913222e-05 )
( 2.962129656e-05 -1.151722245e-05 -1.643653036e-07 2.257008055e-05 2.196665037e-07 2.117750773e-05 )
( 2.918101018e-05 -1.191800675e-05 -1.787718418e-07 2.231707367e-05 2.780676027e-07 2.005156057e-05 )
( 2.872192272e-05 -1.203314969e-05 -1.158803826e-07 2.11211991e-05 3.361439269e-07 1.952537059e-05 )
( 2.785360084e-05 -1.173911642e-05 9.309569293e-08 1.943656935e-05 2.890834594e-07 1.85233439e-05 )
( 2.670858521e-05 -1.107168009e-05 3.751486588e-07 1.759942643e-05 1.279933457e-07 1.707314732e-05 )
( 2.536356988e-05 -1.009964581e-05 5.599263204e-07 1.573841837e-05 -1.188618981e-07 1.563138721e-05 )
( 2.360521648e-05 -8.88332761e-06 6.723194019e-07 1.394357878e-05 -3.180050783e-07 1.429334861e-05 )
( 2.149385364e-05 -7.571249171e-06 8.800923865e-07 1.227023495e-05 -3.976183791e-07 1.290474211e-05 )
( 1.926342338e-05 -6.312959158e-06 9.738284916e-07 1.078097921e-05 -3.902395349e-07 1.143928239e-05 )
( 3.220445433e-05 -1.129056182e-05 -3.860810125e-07 2.12962168e-05 1.363270599e-07 2.486086305e-05 )
( 2.981960461e-05 -1.134333979e-05 -1.238951768e-07 2.194491572e-05 2.06211169e-07 2.104963096e-05 )
( 2.91861943e-05 -1.166705897e-05 -1.257471354e-07 2.186327038e-05 2.560009591e-07 1.979842818e-05 )
( 2.863587542e-05 -1.178719049e-05 -9.349868435e-08 2.088026122e-05 3.24461638e-07 1.923620766e-05 )
( 2.77320305e-05 -1.154135407e-05 7.103786714e-08 1.935306136e-05 3.016247945e-07 1.830796282e-05 )
( 2.654640048e-05 -1.092942421e-05 3.036405758e-07 1.761635212e-05 1.669567098e-07 1.690930549e-05 )
( 2.516344102e-05 -1.000792145e-05 4.846763773e-07 1.580935532e-05 -6.059173785e-08 1.551164496e-05 )
( 2.342587504e-05 -8.844888725e-06 5.939771199e-07 1.404282375e-05 -2.65944891e-07 1.424108086e-05 )
( 2.133982161e-05 -7.562733117e-06 8.068760735e-07 1.237042761e-05 -3.616188451e-07 1.291182161e-05 )
( 1.915239045e-05 -6.304049748e-06 9.580186315e-07 1.080985203e-05 -3.766334657e-07 1.145885108e-05 )
( 1.703370253e-05 -5.128362318e-06 8.534618701e-07 9.419733942e-06 -3.256080561e-07 1.011774111e-05 )
( 3.296546856e-05 -1.140645054e-05 -3.907023824e-07 2.08524616e-05 6.766882166e-08 2.492101703e-05 )
( 3.007230225e-05 -1.119870649e-05 -1.076050751e-07 2.134361057e-05 1.818085593e-07 2.10370381e-05 )
( 2.922979183e-05 -1.144638372e-05 -7.4769261e-08 2.139548815e-05 2.344855545e-07 1.958694884e-05 )
( 2.858084008e-05 -1.155989867e-05 -6.473346303e-08 2.060289808e-05 3.074419794e-07 1.895874993e-05 )
( 2.762870645e-05 -1.135089042e-05 6.33577244e-08 1.922335468e-05 3.091170413e-07 1.808121124e-05 )
( 2.642470645e-05 -1.078564037e-05 2.47081573e-07 1.759573024e-05 1.981855462e-07 1.673786028e-05 )
( 2.500848314e-05 -9.910887456e-06 4.143558101e-07 1.585342216e-05 -8.170243149e-09 1.537608659e-05 )
( 2.327469701e-05 -8.797289411e-06 5.254263442e-07 1.411945232e-05 -2.153314682e-07 1.416905616e-05 )
( 2.121967555e-05 -7.547201221e-06 7.360196719e-07 1.246580359e-05 -3.223943565e-07 1.290852742e-05 )
( 1.905093632e-05 -6.302385827e-06 9.273623505e-07 1.088635872e-05 -3.548135226e-07 1.150753906e-05 )
( 1.69636769e-05 -5.121155027e-06 8.68869563e-07 9.423839401e-06 -3.224274678e-07 1.013599831e-05 )
( 1.506901845e-05 -4.008005817e-06 6.572407756e-07 8.090873052e-06 -2.255304992e-07 9.124001735e-06 )
( 3.034841211e-05 -1.109112418e-05 -1.045648119e-07 2.080938793e-05 1.417551232e-07 2.103785846e-05 )
( 3.376325549e-05 -1.154701295e-05 -4.007565053e-07 2.047769158e-05 -1.771878999e-08 2.495398439e-05 )
( 2.927800597e-05 -1.124729442e-05 -3.250408298e-08 2.092361137e-05 2.122788914e-07 1.941592018e-05 )
( 2.854674312e-05 -1.13501037e-05 -3.049304453e-08 2.03012878e-05 2.863539521e-07 1.870115557e-05 )
( 2.755835339e-05 -1.116987642e-05 6.597161928e-08 1.905946738e-05 3.120708243e-07 1.784924825e-05 )
( 2.630573908e-05 -1.064404023e-05 2.047743948e-07 1.753702236e-05 2.22965042e-07 1.655730011e-05 )
( 2.489440885e-05 -9.808029063e-06 3.497974888e-07 1.587082443e-05 3.79374363e-08 1.523271021e-05 )
( 2.313752884e-05 -8.742523278e-06 4.647825449e-07 1.417535168e-05 -1.666764717e-07 1.407834679e-05 )
( 2.111181311e-05 -7.525557521e-06 6.701462212e-07 1.254336075e-05 -2.820605687e-07 1.288395924e-05 )
( 1.89577695e-05 -6.29617125e-06 8.895433439e-07 1.096850883e-05 -3.2732666e-07 1.154605707e-05 )
( 1.692140722e-05 -5.122366019e-06 8.801740137e-07 9.470466466e-06 -3.140007721e-07 1.019227784e-05 )
( 1.499045356e-05 -4.004329185e-06 6.814281619e-07 8.081672604e-06 -2.280568197e-07 9.117438822e-06 )
( 1.343853273e-05 -2.946366521e-06 5.003392971e-07 6.757570645e-06 -1.096980782e-07 8.521637028e-06 )
( 2.935646808e-05 -1.107064236e-05 -6.476739589e-09 2.045781548e-05 1.857043515e-07 1.928130951e-05 )
( 3.070950333e-05 -1.100293048e-05 -1.415104123e-07 2.028601921e-05 9.270190304e-08 2.104667692e-05 )
( 3.451926386e-05 -1.169411917e-05 -3.93323603e-07 2.018297164e-05 -1.08120517e-07 2.498307185e-05 )
( 2.852590842e-05 -1.114790848e-05 7.729443752e-09 1.997412983e-05 2.62676366e-07 1.846556916e-05 )
( 2.751827014e-05 -1.099802103e-05 7.674157843e-08 1.88714148e-05 3.100516039e-07 1.761929889e-05 )
( 2.622679676e-05 -1.050623723e-05 1.7375163e-07 1.74460165e-05 2.430788868e-07 1.637035894e-05 )
( 2.477788803e-05 -9.706301171e-06 2.913864705e-07 1.586459803e-05 7.80608076e-08 1.508460446e-05 )
( 2.305585622e-05 -8.680379324e-06 4.096443149e-07 1.421311936e-05 -1.201318156e-07 1.397235064e-05 )
( 2.101078644e-05 -7.499767889e-06 6.106897672e-07 1.260428962e-05 -2.419137388e-07 1.283875827e-05 )
( 1.888593397e-05 -6.284176379e-06 8.473130606e-07 1.104124476e-05 -2.958457799e-07 1.1564548e-05 )
( 1.687148324e-05 -5.121461527e-06 8.829871376e-07 9.529216186e-06 -3.001709672e-07 1.024651465e-05 )
( 1.498999154e-05 -4.010517841e-06 7.104159749e-07 8.106903806e-06 -2.292867975e-07 9.148287972e-06 )
( 1.334578246e-05 -2.944131666e-06 5.216599561e-07 6.746341569e-06 -1.135316055e-07 8.495779184e-06 )
( 1.223572872e-05 -1.973477538e-06 4.083365752e-07 5.434842024e-06 -1.686433215e-08 8.228180377e-06 )
( 2.853238038e-05 -1.09565317e-05 4.653945496e-08 1.962770693e-05 2.369145591e-07 1.824913488e-05 )
( 2.947726898e-05 -1.090706155e-05 -1.642009195e-09 1.999271626e-05 1.524304309e-07 1.917510053e-05 )
( 3.111099795e-05 -1.094817344e-05 -1.838753292e-07 1.98196758e-05 3.331362919e-08 2.112502079e-05 )
( 3.544277934e-05 -1.190053263e-05 -3.890149287e-07 1.996057654e-05 -2.152943779e-07 2.506841702e-05 )
( 2.749558189e-05 -1.082605741e-05 9.526918632e-08 1.865556806e-05 3.026900117e-07 1.739666368e-05 )
( 2.616943493e-05 -1.037217589e-05 1.524883544e-07 1.732750388e-05 2.588096208e-07 1.617845737e-05 )
( 2.468321327e-05 -9.604231309e-06 2.390610518e-07 1.58315961e-05 1.12451076e-07 1.493091622e-05 )
( 2.29705638e-05 -8.616010746e-06 3.58431123e-07 1.42368699e-05 -7.594334761e-08 1.385511041e-05 )
( 2.093967851e-05 -7.470261153e-06 5.57345345e-07 1.265120591e-05 -2.024124655e-07 1.277444153e-05 )
( 1.88241429e-05 -6.269481673e-06 8.034168104e-07 1.11029085e-05 -2.622914508e-07 1.156302278e-05 )
( 1.682131187e-05 -5.115340173e-06 8.778845881e-07 9.58622968e-06 -2.809719888e-07 1.028791212e-05 )
( 1.497266476e-05 -4.016134881e-06 7.346204143e-07 8.144097592e-06 -2.276790383e-07 9.186132047e-06 )
( 1.332000647e-05 -2.955470791e-06 5.499237545e-07 6.763496913e-06 -1.191269021e-07 8.496670489e-06 )
( 1.210561913e-05 -1.963040404e-06 4.22007929e-07 5.421765309e-06 -2.093385731e-08 8.199989679e-06 )
( 1.129436532e-05 -9.719472018e-07 3.889257982e-07 3.880725671e-06 2.53213539e-08 8.142709703e-06 )
( 2.855458843e-05 -1.077024535e-05 8.033808996e-08 1.926345249e-05 2.098441172e-07 1.805515785e-05 )
( 2.748299994e-05 -1.065407469e-05 1.209677123e-07 1.840916957e-05 2.901990968e-07 1.717510895e-05 )
( 2.96044218e-05 -1.076051649e-05 -1.615925171e-08 1.953102765e-05 1.129371014e-07 1.908773083e-05 )
( 3.159306289e-05 -1.094922845e-05 -2.330220497e-07 1.940478251e-05 -3.139493998e-08 2.121768557e-05 )
( 3.640278737e-05 -1.214110944e-05 -3.46805308e-07 1.979420631e-05 -3.330154641e-07 2.506093188e-05 )
( 2.613342076e-05 -1.023651475e-05 1.40481589e-07 1.71831889e-05 2.699183028e-07 1.598744893e-05 )
( 2.459894495e-05 -9.50210233e-06 1.9338313e-07 1.577121657e-05 1.413701654e-07 1.476987291e-05 )
( 2.288706673e-05 -8.547001926e-06 3.10276107e-07 1.424221591e-05 -3.537618198e-08 1.372680526e-05 )
( 2.088318797e-05 -7.43774126e-06 5.097195981e-07 1.268568212e-05 -1.637060052e-07 1.269206405e-05 )
( 1.876763599e-05 -6.252822914e-06 7.597766967e-07 1.115358282e-05 -2.28141829e-07 1.154217898e-05 )
( 1.679782508e-05 -5.105538548e-06 8.664189295e-07 9.639124073e-06 -2.573350173e-07 1.031509237e-05 )
( 1.496247569e-05 -4.017126685e-06 7.530234711e-07 8.182445526e-06 -2.222033544e-07 9.22061372e-06 )
( 1.331726071e-05 -2.968769195e-06 5.773081284e-07 6.790412954e-06 -1.244605556e-07 8.507297935e-06 )
( 1.205388526e-05 -1.974298812e-06 4.423858968e-07 5.439019333e-06 -2.781296082e-08 8.189140317e-06 )
( 1.120204342e-05 -1.009292646e-06 3.769898456e-07 4.002391506e-06 2.803386678e-08 8.093893484e-06 )
( 1.09308794e-05 -3.5955577e-07 4.311942234e-07 2.735705948e-06 1.065266986e-08 8.220983545e-06 )
( 1.09538305e-05 -4.637165603e-07 4.113135219e-07 3.000039669e-06 2.293579016e-08 8.170278306e-06 )
( 2.855680941e-05 -1.059163515e-05 1.041735516e-07 1.888247607e-05 1.817308828e-07 1.787527071e-05 )
( 2.747777216e-05 -1.0479097e-05 1.51026228e-07 1.813794552e-05 2.73949297e-07 1.696341133e-05 )
( 2.610553202e-05 -1.009953303e-05 1.378286072e-07 1.701407746e-05 2.763044904e-07 1.579694072e-05 )
( 2.977605618e-05 -1.064278513e-05 -4.345497473e-08 1.908519516e-05 6.935439245e-08 1.902643453e-05 )
( 3.215516699e-05 -1.096211236e-05 -2.725959973e-07 1.902688746e-05 -1.019732849e-07 2.13024141e-05 )
( 3.731706965e-05 -1.23907239e-05 -2.5446829e-07 1.967059688e-05 -4.59666694e-07 2.496677553e-05 )
( 2.454300193e-05 -9.398388102e-06 1.551244679e-07 1.568678454e-05 1.656344892e-07 1.460360272e-05 )
( 2.28254612e-05 -8.473393791e-06 2.64976677e-07 1.42258441e-05 6.866773816e-10 1.358679219e-05 )
( 2.082085484e-05 -7.399923561e-06 4.670498015e-07 1.270720622e-05 -1.263327363e-07 1.259430428e-05 )
( 1.873117435e-05 -6.235504316e-06 7.177713996e-07 1.119310309e-05 -1.941984635e-07 1.150258504e-05 )
( 1.675502972e-05 -5.09354868e-06 8.501235129e-07 9.686406884e-06 -2.305379354e-07 1.032790169e-05 )
( 1.496203367e-05 -4.014107617e-06 7.656432786e-07 8.220391464e-06 -2.124277216e-07 9.2487644e-06 )
( 1.332755164e-05 -2.978464181e-06 6.019371881e-07 6.818017482e-06 -1.286460076e-07 8.519882613e-06 )
( 1.203141619e-05 -1.989773864e-06 4.645089007e-07 5.462670288e-06 -3.523236813e-08 8.184871149e-06 )
( 1.115620216e-05 -1.01539797e-06 3.879188739e-07 4.020542292e-06 2.164121682e-08 8.087384231e-06 )
( 1.088019053e-05 -4.686968396e-07 3.768349472e-07 3.055615707e-06 3.19579172e-08 8.102485481e-06 )
( 1.085070926e-05 -4.621149401e-07 3.779001077e-07 3.062505129e-06 3.111360058e-08 8.102083484e-06 )
( 1.071046154e-05 2.11373905e-08 4.491075458e-07 1.894511115e-06 -1.037609643e-08 8.289165635e-06 )
( 1.07609012e-05 -5.299759209e-08 4.173619175e-07 2.087402436e-06 5.644388068e-09 8.192417226e-06 )
( 2.855378079e-05 -1.042903568e-05 1.155945668e-07 1.849210093e-05 1.527840539e-07 1.770585732e-05 )
( 2.746555037e-05 -1.030326894e-05 1.819016973e-07 1.784569395e-05 2.554151592e-07 1.676095053e-05 )
( 2.608193972e-05 -9.957140719e-06 1.438634456e-07 1.682151924e-05 2.782022364e-07 1.560884084e-05 )
( 2.449146814e-05 -9.294081792e-06 1.25148631e-07 1.558176336e-05 1.861825183e-07 1.443472684e-05 )
( 3.001259756e-05 -1.054666609e-05 -7.13234698e-08 1.86623729e-05 2.391088394e-08 1.898907431e-05 )
( 3.275000199e-05 -1.101475664e-05 -2.848449867e-07 1.870055348e-05 -1.8327448e-07 2.132646841e-05 )
( 3.812957948e-05 -1.262233673e-05 -1.139324368e-07 1.958465327e-05 -5.750434298e-07 2.482561649e-05 )
( 2.27828059e-05 -8.396748854e-06 2.229015905e-07 1.418977718e-05 3.23332543e-08 1.343796248e-05 )
( 2.080568993e-05 -7.356010428e-06 4.288404511e-07 1.271430756e-05 -9.103052889e-08 1.248400076e-05 )
( 1.86776906e-05 -6.216090696e-06 6.783342315e-07 1.122131835e-05 -1.610277565e-07 1.144631642e-05 )
( 1.673968836e-05 -5.080446499e-06 8.306220707e-07 9.726585631e-06 -2.018627043e-07 1.03262937e-05 )
( 1.494932076e-05 -4.008510587e-06 7.734831797e-07 8.257013178e-06 -1.986182525e-07 9.269405382e-06 )
( 1.332062038e-05 -2.984266985e-06 6.227127756e-07 6.845676126e-06 -1.307931825e-07 8.531583262e-06 )
( 1.20336008e-05 -2.003773716e-06 4.875293484e-07 5.486461305e-06 -4.315732838e-08 8.182202691e-06 )
( 1.11384652e-05 -1.027411599e-06 4.01279209e-07 4.0416503e-06 1.478483469e-08 8.085593436e-06 )
( 1.082632025e-05 -4.66031139e-07 3.816797118e-07 3.072888603e-06 2.847807146e-08 8.102514585e-06 )
( 1.080297261e-05 -4.694647657e-07 3.833222593e-07 3.080298939e-06 2.726167736e-08 8.10408892e-06 )
( 1.071527458e-05 -4.324043346e-08 3.982730163e-07 2.08649999e-06 1.07842455e-08 8.145655556e-06 )
( 1.067636731e-05 -2.102649432e-08 3.844424725e-07 2.050347121e-06 1.412161676e-08 8.127726687e-06 )
( 1.052316657e-05 2.095539173e-07 4.046942763e-07 1.355553877e-06 -1.271582306e-08 8.250074643e-06 )
( 1.064830758e-05 1.479128713e-07 4.031503522e-07 1.577303578e-06 -3.149968897e-10 8.174035429e-06 )
( 2.859323831e-05 -1.028033603e-05 1.172971551e-07 1.810363574e-05 1.233404134e-07 1.755386074e-05 )
( 2.743589539e-05 -1.013349902e-05 2.099513665e-07 1.753898687e-05 2.358550262e-07 1.65683432e-05 )
( 2.606336602e-05 -9.809191397e-06 1.570281682e-07 1.660817543e-05 2.76126741e-07 1.542464452e-05 )
( 2.444957499e-05 -9.186071111e-06 1.039710256e-07 1.545667146e-05 2.036513962e-07 1.426503059e-05 )
( 2.275871702e-05 -8.318589607e-06 1.845501885e-07 1.413568589e-05 6.040503564e-08 1.328298731e-05 )
( 3.028405445e-05 -1.047426122e-05 -8.827465336e-08 1.826166226e-05 -2.395481324e-08 1.894616798e-05 )
( 3.331551852e-05 -1.108279503e-05 -2.617985047e-07 1.84238088e-05 -2.721727697e-07 2.130134453e-05 )
( 3.878524149e-05 -1.281447567e-05 5.187822083e-08 1.952137427e-05 -6.79253219e-07 2.466063597e-05 )
( 2.078879152e-05 -7.30689726e-06 3.947719449e-07 1.270661051e-05 -5.835298111e-08 1.236442768e-05 )
( 1.868081017e-05 -6.193462013e-06 6.428317079e-07 1.123812854e-05 -1.290209184e-07 1.137680556e-05 )
( 1.669173616e-05 -5.066948233e-06 8.092408166e-07 9.758367014e-06 -1.725975238e-07 1.031097781e-05 )
( 1.493473064e-05 -4.000861736e-06 7.774559663e-07 8.290788173e-06 -1.815355404e-07 9.281922758e-06 )
( 1.331516523e-05 -2.987511607e-06 6.39812356e-07 6.87292868e-06 -1.303371846e-07 8.540650924e-06 )
( 1.19949791e-05 -2.015478231e-06 5.096661084e-07 5.509757557e-06 -5.118397084e-08 8.179764336e-06 )
( 1.110849462e-05 -1.039595304e-06 4.174000878e-07 4.062481366e-06 7.201700569e-09 8.084407455e-06 )
( 1.077264187e-05 -4.765034873e-07 3.87290072e-07 3.092234692e-06 2.419984568e-08 8.105525012e-06 )
( 1.076596709e-05 -4.794151209e-07 3.903116408e-07 3.099583864e-06 2.183041659e-08 8.107374015e-06 )
( 1.062262163e-05 -2.370284591e-08 3.864531379e-07 2.057499387e-06 1.382382386e-08 8.132526091e-06 )
( 1.059173246e-05 -2.76519394e-08 3.88384791e-07 2.067328296e-06 1.351026668e-08 8.13825136e-06 )
( 1.056107249e-05 2.163192363e-07 3.782178624e-07 1.373282089e-06 2.930686138e-09 8.1062135e-06 )
( 1.054451241e-05 2.088857798e-07 3.792988821e-07 1.391877049e-06 3.008636895e-09 8.120219718e-06 )
( 1.027095459e-05 3.326277351e-07 3.338672627e-07 7.496441299e-07 -9.539427026e-09 8.07964534e-06 )
( 1.035682362e-05 3.424980548e-07 3.497800947e-07 7.564854059e-07 -4.040386692e-09 8.026028809e-06 )
( 2.865566603e-05 -1.014523696e-05 1.159702805e-07 1.771761708e-05 9.329050954e-08 1.74109955e-05 )
( 2.742139441e-05 -9.969303392e-06 2.335718818e-07 1.722304296e-05 2.155410073e-07 1.63856057e-05 )
( 2.604930705e-05 -9.659748684e-06 1.754601442e-07 1.637998503e-05 2.707971589e-07 1.52469247e-05 )
( 2.443133781e-05 -9.072861758e-06 9.16945595e-08 1.531259659e-05 2.183652441e-07 1.409572815e-05 )
( 2.272989332e-05 -8.237823749e-06 1.504854907e-07 1.406436786e-05 8.623589309e-08 1.31237648e-05 )
( 2.08010315e-05 -7.253912827e-06 3.640443254e-07 1.268400865e-05 -2.857051129e-08 1.22372785e-05 )
( 3.055829438e-05 -1.041988435e-05 -8.7792003e-08 1.789681119e-05 -7.500706545e-08 1.889674604e-05 )
( 3.380228736e-05 -1.114685438e-05 -1.946624053e-07 1.819217869e-05 -3.647173799e-07 2.122675323e-05 )
( 3.932923573e-05 -1.296274968e-05 1.663110538e-07 1.946070552e-05 -7.559953588e-07 2.447368388e-05 )
( 1.86738398e-05 -6.16736952e-06 6.121307479e-07 1.124337905e-05 -9.836878689e-08 1.129659722e-05 )
( 1.667629476e-05 -5.052855613e-06 7.879804116e-07 9.781255358e-06 -1.43638303e-07 1.028327461e-05 )
( 1.492079264e-05 -3.991779522e-06 7.786170499e-07 8.32036676e-06 -1.622438077e-07 9.286359273e-06 )
( 1.329522183e-05 -2.98830264e-06 6.533542205e-07 6.899004347e-06 -1.271309316e-07 8.546054232e-06 )
( 1.195550249e-05 -2.025654339e-06 5.304154342e-07 5.532348041e-06 -5.875060793e-08 8.176926713e-06 )
( 1.106743639e-05 -1.050965466e-06 4.35101299e-07 4.081807219e-06 -9.775662502e-10 8.083131434e-06 )
( 1.072097075e-05 -4.862074547e-07 3.967371072e-07 3.110791567e-06 1.857655008e-08 8.108883776e-06 )
( 1.071140377e-05 -4.891579692e-07 4.008729206e-07 3.117193955e-06 1.61297482e-08 8.110794624e-06 )
( 1.05753079e-05 -3.190284303e-08 3.895898999e-07 2.07414314e-06 1.26879991e-08 8.141771104e-06 )
( 1.055857047e-05 -3.571432572e-08 3.919632832e-07 2.08273832e-06 1.208846268e-08 8.147189874e-06 )
( 1.051449817e-05 2.034027204e-07 3.815558216e-07 1.403261876e-06 3.625851841e-09 8.131337381e-06 )
( 1.047725073e-05 2.006636066e-07 3.842804119e-07 1.411481321e-06 3.709913043e-09 8.140268619e-06 )
( 1.035488185e-05 3.457242599e-07 3.523697956e-07 7.190396332e-07 -2.094788565e-09 8.017239452e-06 )
( 1.032833097e-05 3.380155817e-07 3.540209548e-07 7.386195193e-07 -2.416389311e-09 8.037298358e-06 )
( 9.765621144e-06 3.19945201e-07 1.939939409e-07 3.095878469e-07 -4.864893821e-09 7.605172868e-06 )
( 1.006137063e-05 3.371321782e-07 3.058037805e-07 4.025365854e-07 -4.007425058e-09 7.73184729e-06 )
( 2.872700497e-05 -1.002334284e-05 1.178492042e-07 1.734732723e-05 6.274704845e-08 1.727780909e-05 )
( 2.740245145e-05 -9.811197742e-06 2.533448651e-07 1.690047065e-05 1.938685159e-07 1.621137744e-05 )
( 2.60427787e-05 -9.50953563e-06 1.976385846e-07 1.614082248e-05 2.625313869e-07 1.50765627e-05 )
( 2.442139703e-05 -8.956087186e-06 8.792690664e-08 1.515300846e-05 2.300924962e-07 1.392855393e-05 )
( 2.270861296e-05 -8.152954251e-06 1.214468881e-07 1.397656979e-05 1.109456207e-07 1.29613145e-05 )
( 2.080278318e-05 -7.197440482e-06 3.355036711e-07 1.264674574e-05 -1.164283336e-09 1.21032881e-05 )
( 1.86900761e-05 -6.137420314e-06 5.859483281e-07 1.123702168e-05 -6.932450702e-08 1.120720026e-05 )
( 3.082720286e-05 -1.037595666e-05 -6.514024165e-08 1.756466372e-05 -1.293854552e-07 1.882970355e-05 )
( 3.423111411e-05 -1.120208799e-05 -1.045040676e-07 1.798885023e-05 -4.506700577e-07 2.111605863e-05 )
( 3.987860327e-05 -1.311125561e-05 2.022089234e-07 1.940788025e-05 -7.925656291e-07 2.428705375e-05 )
( 1.666662865e-05 -5.037948085e-06 7.678364113e-07 9.794908692e-06 -1.151873477e-07 1.024403628e-05 )
( 1.492841602e-05 -3.981647751e-06 7.781488307e-07 8.344662092e-06 -1.415537412e-07 9.282545761e-06 )
( 1.330444138e-05 -2.986788559e-06 6.642905532e-07 6.923259207e-06 -1.214294514e-07 8.547350262e-06 )
( 1.194363358e-05 -2.033826604e-06 5.482929737e-07 5.553828487e-06 -6.521703e-08 8.173087735e-06 )
( 1.099304063e-05 -1.062406227e-06 4.540627856e-07 4.099747912e-06 -9.65601199e-09 8.081704436e-06 )
( 1.068757319e-05 -4.95780057e-07 4.07577943e-07 3.127123136e-06 1.234477409e-08 8.112381693e-06 )
( 1.066473124e-05 -4.99061457e-07 4.127027182e-07 3.13245323e-06 9.799946632e-09 8.114460798e-06 )
( 1.051726395e-05 -3.976117924e-08 3.948876213e-07 2.087821485e-06 1.101437697e-08 8.150863323e-06 )
( 1.050641913e-05 -4.400685327e-08 3.972081402e-07 2.094997853e-06 1.022875651e-08 8.155718206e-06 )
( 1.045669251e-05 1.957501183e-07 3.85858641e-07 1.418697821e-06 3.5185308e-09 8.147429071e-06 )
( 1.044889905e-05 1.935653984e-07 3.887675746e-07 1.424371476e-06 3.930912484e-09 8.154716852e-06 )
( 1.030347448e-05 3.336223529e-07 3.561082735e-07 7.466543366e-07 -2.092349405e-09 8.053382771e-06 )
( 1.027966846e-05 3.302162099e-07 3.587882702e-07 7.507437658e-07 -1.465670585e-09 8.067683666e-06 )
( 1.00745192e-05 3.322880389e-07 3.152589159e-07 4.093564314e-07 -2.664186205e-09 7.742001799e-06 )
( 1.005092781e-05 3.297843421e-07 3.176282917e-07 4.220325991e-07 -2.528291354e-09 7.771467608e-06 )
( 7.449535133e-06 1.638739633e-07 7.267916402e-08 5.864008656e-08 2.972058988e-10 4.969477686e-06 )
( 7.470362107e-06 1.647448897e-07 1.471436946e-07 4.432735068e-08 -2.678760824e-10 4.871378678e-06 )
( 2.883118941e-05 -9.91232082e-06 1.274481605e-07 1.699726636e-05 3.2092899e-08 1.715279177e-05 )
( 2.738172043e-05 -9.661564036e-06 2.700084281e-07 1.657937719e-05 1.703891002e-07 1.604509634e-05 )
( 2.602619134e-05 -9.35918797e-06 2.226635729e-07 1.589402018e-05 2.5100735e-07 1.491392504e-05 )
( 2.441162906e-05 -8.835420886e-06 9.194223338e-08 1.498113579e-05 2.382176518e-07 1.376513865e-05 )
( 2.269878678e-05 -8.064607755e-06 9.813997792e-08 1.387447173e-05 1.346418799e-07 1.27970452e-05 )
( 2.079508886e-05 -7.137007287e-06 3.082971602e-07 1.259614783e-05 2.482478045e-08 1.196314679e-05 )
( 1.870729102e-05 -6.103890883e-06 5.628306212e-07 1.121893365e-05 -4.208860105e-08 1.111005895e-05 )
( 1.667648758e-05 -5.021520792e-06 7.491882457e-07 9.799234249e-06 -8.730533807e-08 1.019445153e-05 )
( 3.11126787e-05 -1.034866455e-05 -2.21757599e-08 1.726747541e-05 -1.855993332e-07 1.875631278e-05 )
( 3.468714203e-05 -1.126615007e-05 -2.324990156e-08 1.781388164e-05 -5.227390147e-07 2.100881284e-05 )
( 4.037216422e-05 -1.321506716e-05 2.181397321e-07 1.935153887e-05 -8.090161714e-07 2.414094342e-05 )
( 1.490749673e-05 -3.97056192e-06 7.761462939e-07 8.362821973e-06 -1.198962707e-07 9.270137525e-06 )
( 1.331300882e-05 -2.983285185e-06 6.732038855e-07 6.944918823e-06 -1.134350356e-07 8.544507182e-06 )
( 1.195760342e-05 -2.039957508e-06 5.631917475e-07 5.573782801e-06 -7.010858383e-08 8.167594387e-06 )
( 1.098748544e-05 -1.073111207e-06 4.721592575e-07 4.116321634e-06 -1.847454989e-08 8.080066436e-06 )
( 1.063544732e-05 -5.059744126e-07 4.213708849e-07 3.141203479e-06 5.781344736e-09 8.116260688e-06 )
( 1.060441537e-05 -5.093687037e-07 4.269934948e-07 3.145820529e-06 2.887696304e-09 8.118751794e-06 )
( 1.048009744e-05 -4.795410291e-08 3.996796067e-07 2.098758159e-06 8.454748013e-09 8.159810022e-06 )
( 1.046091893e-05 -5.206698717e-08 4.031127219e-07 2.104551413e-06 7.168385441e-09 8.165065083e-06 )
( 1.039535073e-05 1.890862507e-07 3.916452158e-07 1.42963745e-06 3.701031481e-09 8.161405276e-06 )
( 1.04031069e-05 1.864451633e-07 3.937383894e-07 1.433606826e-06 3.660788561e-09 8.167545275e-06 )
( 1.025640631e-05 3.271011622e-07 3.614355535e-07 7.536593216e-07 -1.662497806e-09 8.080683983e-06 )
( 1.023608729e-05 3.242607534e-07 3.641805222e-07 7.563787108e-07 -1.289210183e-09 8.091978998e-06 )
( 1.003317811e-05 3.274514029e-07 3.193002556e-07 4.273083789e-07 -2.216078654e-09 7.79392667e-06 )
( 1.001862165e-05 3.251873295e-07 3.217128892e-07 4.302930847e-07 -1.765567914e-09 7.811838259e-06 )
( 7.701272807e-06 1.692880858e-07 1.625201804e-07 4.663445097e-08 -4.564691125e-10 5.016535397e-06 )
( 7.751326848e-06 1.672051297e-07 1.746518024e-07 4.770751616e-08 -5.391126989e-10 5.046784736e-06 )
( 4.528059435e-06 6.287582721e-08 3.441556018e-08 8.15109491e-09 4.470633586e-10 2.661361577e-06 )
( 4.581880148e-06 6.315950429e-08 7.476875652e-08 7.639901156e-09 5.238961348e-11 2.628313268e-06 )
( 2.897482409e-05 -9.818526451e-06 1.456803744e-07 1.667076867e-05 7.121114809e-10 1.703545422e-05 )
( 2.740220771e-05 -9.520538697e-06 2.849087366e-07 1.626777521e-05 1.459285528e-07 1.588967825e-05 )
( 2.600154585e-05 -9.211732504e-06 2.493717375e-07 1.564262857e-05 2.360410178e-07 1.475734825e-05 )
( 2.438683805e-05 -8.710836482e-06 1.029827743e-07 1.480023093e-05 2.419635621e-07 1.360626629e-05 )
( 2.268540811e-05 -7.972588719e-06 8.084933256e-08 1.376004548e-05 1.564881558e-07 1.263307877e-05 )
( 2.078984107e-05 -7.072578683e-06 2.821008707e-07 1.253362552e-05 5.017471238e-08 1.181782591e-05 )
( 1.872560824e-05 -6.066633887e-06 5.411662869e-07 1.11900481e-05 -1.659359583e-08 1.100626196e-05 )
( 1.670524216e-05 -5.003190836e-06 7.319507631e-07 9.794063772e-06 -6.030558097e-08 1.013633846e-05 )
( 1.487351892e-05 -3.958629804e-06 7.726353601e-07 8.374211575e-06 -9.762945297e-08 9.249275536e-06 )