/*--------------------------------*- C++ -*----------------------------------*\
  =========                 |
  \\      /  F ield         | OpenFOAM: The Open Source CFD Toolbox
   \\    /   O peration     | Website:  https://openfoam.org
    \\  /    A nd           | Version:  8
     \\/     M anipulation  |
\*---------------------------------------------------------------------------*/






FoamFile
{
    version     2.0;
    format      ascii;
    class       volVectorField;
    location    "0";
    object      UDDES;
}
// * * * * * * * * * * * * * * * * * * * * * * * * * * * * * * * * * * * * * //

dimensions      [0 1 -1 0 0 0 0];


internalField   nonuniform List<vector> 
15041
(
( 0.02705189958 0.002354046796 0.0001820634498 )
( 0.02718725801 0.002057472244 0.0001390547695 )
( 0.02743281052 0.002139651449 0.0002049028117 )
( 0.02729879878 0.001765971771 0.0001200834304 )
( 0.02755877748 0.001914234948 0.0001930831058 )
( 0.02784010023 0.001972592901 0.0002050818584 )
( 0.02736908197 0.001519729383 0.0001054070672 )
( 0.02767699771 0.001666528173 0.0001775741985 )
( 0.02796270326 0.00178014813 0.0002036979131 )
( 0.02830393612 0.00181306107 0.0001737479615 )
( 0.02741468139 0.001314064721 9.383189172e-05 )
( 0.02776363119 0.001444956521 0.0001630116894 )
( 0.02808062918 0.00156266999 0.0001987919095 )
( 0.0284223482 0.00164824375 0.0001813555573 )
( 0.02880088985 0.001664513256 0.0001304402103 )
( 0.02745704725 0.001139540575 8.660014282e-05 )
( 0.02782778814 0.001252782997 0.0001500578801 )
( 0.02817193046 0.001363390358 0.0001918621128 )
( 0.02853922173 0.001458587823 0.0001873941364 )
( 0.02891691029 0.00152203138 0.0001431121782 )
( 0.02930243127 0.001524128951 9.485709597e-05 )
( 0.02750548534 0.0009841317078 8.244538185e-05 )
( 0.02788126469 0.00108596764 0.0001387987868 )
( 0.02824303508 0.001185662462 0.0001838578901 )
( 0.02863229252 0.001280108816 0.0001903734228 )
( 0.02903271466 0.001355242333 0.0001561407989 )
( 0.02941695042 0.001399839064 0.000108184322 )
( 0.0297806263 0.001390447258 7.746458141e-05 )
( 0.02754406258 0.0008455974166 7.756179548e-05 )
( 0.02793608978 0.0009361213888 0.0001304704929 )
( 0.02830207162 0.001027424587 0.0001755864505 )
( 0.02870598622 0.001116181607 0.0001909666025 )
( 0.02912722155 0.00119469245 0.0001663060248 )
( 0.02953281812 0.001252530259 0.0001233689982 )
( 0.02989333868 0.001282350975 8.767812687e-05 )
( 0.03021471947 0.001263041282 7.858965546e-05 )
( 0.0275812 0.0007150991587 7.533939061e-05 )
( 0.02798403427 0.0007989219157 0.0001211966228 )
( 0.02835623361 0.0008835563785 0.0001675000967 )
( 0.02876584418 0.0009665051475 0.0001897631155 )
( 0.02920316346 0.001043707365 0.0001740039879 )
( 0.02962914109 0.001108390396 0.000136721239 )
( 0.0300091859 0.001152678044 0.0001002628778 )
( 0.03032431751 0.001169452094 8.480244287e-05 )
( 0.03059622832 0.001143603935 8.560390415e-05 )
( 0.027596917 0.0005736308522 7.088691927e-05 )
( 0.02803621069 0.0006670905277 0.000115818184 )
( 0.02840753645 0.0007494652527 0.0001595661597 )
( 0.02881946974 0.0008278573514 0.0001872799476 )
( 0.02926251292 0.0009030930232 0.0001795593853 )
( 0.02970822901 0.0009703280521 0.0001483297383 )
( 0.03010719828 0.001023874502 0.0001124335467 )
( 0.0304388795 0.001056069974 9.261408559e-05 )
( 0.03070308454 0.001062310301 8.876155334e-05 )
( 0.03091442958 0.001029446837 8.607243944e-05 )
( 0.02760712057 0.0004264315357 6.691765157e-05 )
( 0.02808975801 0.0005350858555 0.0001139797096 )
( 0.02845662832 0.0006212648586 0.0001519843063 )
( 0.02886965498 0.0006974139833 0.0001836618612 )
( 0.02931385674 0.0007708362537 0.0001832156995 )
( 0.02977049351 0.0008393751341 0.0001582197146 )
( 0.03018925712 0.0008984585293 0.0001240345591 )
( 0.03053763695 0.0009416508256 0.000100639154 )
( 0.03081620485 0.0009627726395 9.283502732e-05 )
( 0.03101980314 0.000958358869 8.674219134e-05 )
( 0.0311539229 0.0009200745844 7.785988419e-05 )
( 0.02760182135 0.0002809890429 6.006352123e-05 )
( 0.02812585048 0.000402116566 0.0001074182728 )
( 0.02850172482 0.0004955201293 0.0001450946584 )
( 0.02891625464 0.0005723788054 0.0001791085524 )
( 0.02936241031 0.0006452116068 0.0001851517009 )
( 0.02982293442 0.0007151588215 0.000166301732 )
( 0.03025651537 0.0007776312996 0.0001348624064 )
( 0.03062104806 0.0008284781361 0.0001086923075 )
( 0.03091502562 0.0008611838566 9.739158122e-05 )
( 0.03113234974 0.0008709724061 8.796525799e-05 )
( 0.03125790507 0.0008575632819 7.599117816e-05 )
( 0.03129847348 0.0008152813534 7.014793664e-05 )
( 0.02815318108 0.0002678436285 0.0001024413141 )
( 0.02758210525 0.0001260236313 5.191082164e-05 )
( 0.02854191139 0.0003687966673 0.0001391010883 )
( 0.02895627916 0.0004502609663 0.0001738584397 )
( 0.02940643579 0.0005241849576 0.0001856314047 )
( 0.02987053618 0.0005960352719 0.0001727244235 )
( 0.03031249531 0.0006619023625 0.0001447226678 )
( 0.03069112636 0.0007179439417 0.0001166729053 )
( 0.03099967726 0.0007594698691 0.0001021631833 )
( 0.03123218939 0.0007812007098 8.996655379e-05 )
( 0.03136947751 0.0007803677581 7.436578744e-05 )
( 0.03140188754 0.0007603473496 6.626445975e-05 )
( 0.03132164851 0.0007139556692 7.472570724e-05 )
( 0.02857312374 0.0002398061188 0.0001338626753 )
( 0.02817161754 0.0001236620301 9.776840307e-05 )
( 0.02754415385 -2.666965156e-05 4.006295785e-05 )
( 0.02899163216 0.000327976275 0.0001682639995 )
( 0.02944261953 0.0004058427585 0.000184754841 )
( 0.02991220169 0.0004803546472 0.0001778018632 )
( 0.03035971895 0.0005502745626 0.0001536027557 )
( 0.03074924275 0.0006107813097 0.0001245412277 )
( 0.03107142076 0.0006589874392 0.0001070022408 )
( 0.03131882846 0.0006906022318 9.251783194e-05 )
( 0.03146993741 0.0007008225075 7.3523217e-05 )
( 0.03151230514 0.0006920603337 6.231266889e-05 )
( 0.03142553568 0.0006660528597 7.054268644e-05 )
( 0.03118528612 0.0006138595636 9.451677761e-05 )
( 0.0290208552 0.00020432366 0.0001626294252 )
( 0.02859701961 0.0001059909409 0.0001293562673 )
( 0.02817010507 -2.338934428e-05 9.179065091e-05 )
( 0.02746975794 -0.0001963133545 2.582884918e-05 )
( 0.02947392873 0.0002884934656 0.0001826691732 )
( 0.02994715609 0.0003668453428 0.0001816525764 )
( 0.03039951995 0.0004412674753 0.0001615409565 )
( 0.03079729155 0.0005066247541 0.0001322698954 )
( 0.03113141097 0.0005604666658 0.0001118713699 )
( 0.03139311448 0.0006002897862 9.540708561e-05 )
( 0.03155886009 0.000620287261 7.344548067e-05 )
( 0.03161266074 0.000621449668 5.884855636e-05 )
( 0.03153626621 0.0006062390166 6.600093184e-05 )
( 0.03128946945 0.0005720122717 9.182687791e-05 )
( 0.03067480773 0.0004863236973 0.0001108315337 )
( 0.029045064 7.827347872e-05 0.0001573190966 )
( 0.0295018144 0.0001702943118 0.0001796175493 )
( 0.02861330472 -3.294760972e-05 0.0001252466027 )
( 0.02814687788 -0.0001776407298 8.328276454e-05 )
( 0.02737674862 -0.0003765544679 7.713904779e-06 )
( 0.02997611463 0.0002547863405 0.0001843364153 )
( 0.03043312207 0.000333998265 0.0001685254829 )
( 0.03083690628 0.0004047947587 0.0001397430606 )
( 0.03118100204 0.000463988632 0.0001167614246 )
( 0.03145582229 0.0005109350313 9.849475464e-05 )
( 0.03163602948 0.0005396478809 7.405609358e-05 )
( 0.03170257807 0.0005497839302 5.60156077e-05 )
( 0.03163737431 0.0005442106631 6.156864401e-05 )
( 0.03140252084 0.0005206072237 8.854426414e-05 )
( 0.03087459691 0.0004636928206 0.0001242657454 )
( 0.02995670587 0.000391499314 8.27187032e-05 )
( 0.03024311177 0.0004101863888 0.0001098999346 )
( 0.0290647056 -5.146047624e-05 0.0001524772233 )
( 0.02952481061 5.095675078e-05 0.0001759483712 )
( 0.02999932319 0.0001426539966 0.0001858987234 )
( 0.02861284465 -0.0001768812363 0.00012081155 )
( 0.02810264565 -0.00034041662 7.372194523e-05 )
( 0.02726707235 -0.0005644971388 -9.212630175e-06 )
( 0.03045943566 0.0002279718901 0.00017459027 )
( 0.03086957894 0.0003044716141 0.000146819395 )
( 0.03122161701 0.0003694261832 0.00012162434 )
( 0.03150782734 0.0004228220496 0.000101669124 )
( 0.03170229867 0.000459466246 7.526420814e-05 )
( 0.0317815505 0.0004778297734 5.391743616e-05 )
( 0.03172827512 0.0004809591919 5.744014197e-05 )
( 0.03150648251 0.0004672594077 8.511381748e-05 )
( 0.03099322878 0.0004215510271 0.0001230494381 )
( 0.03036812134 0.0003963154159 0.0001411497942 )
( 0.03042773344 0.0003829696507 0.0001416157465 )
( 0.02918140776 0.0003200654464 4.232860374e-05 )
( 0.02943535149 0.0003318560484 0.0001034560119 )
( 0.02907397598 -0.0001848268148 0.0001479635248 )
( 0.02954212576 -7.037971227e-05 0.0001719593856 )
( 0.03001650795 2.985870742e-05 0.0001864410151 )
( 0.03047860041 0.000122268757 0.0001797481527 )
( 0.0285970103 -0.0003252674651 0.0001157535589 )
( 0.02804262005 -0.0005081609706 6.294112245e-05 )
( 0.02714800276 -0.0007529339637 -2.623755427e-05 )
( 0.03089454956 0.0002052164637 0.0001534105395 )
( 0.03125372157 0.0002762784134 0.0001263442246 )
( 0.03155052289 0.000336020923 0.0001048026825 )
( 0.03175775334 0.0003800607228 7.692724466e-05 )
( 0.03185022622 0.0004061403451 5.259949103e-05 )
( 0.03180874512 0.0004171610635 5.381592564e-05 )
( 0.03160000965 0.0004124979896 8.166538464e-05 )
( 0.0311028827 0.0003773866338 0.0001215422526 )
( 0.03049985692 0.0003621369833 0.0001415869629 )
( 0.03055240959 0.0003471989767 0.0001418996253 )
( 0.02954208106 0.0003126889351 0.000130616012 )
( 0.02958903275 0.0002963955922 0.0001449851261 )
( 0.02841402963 0.0002724631922 2.763051998e-05 )
( 0.02883610502 0.0002951504139 0.000107128697 )
( 0.02907110937 -0.0003205199318 0.0001436371531 )
( 0.02955119684 -0.0001937237394 0.0001679121488 )
( 0.03002758883 -8.393127064e-05 0.0001861153141 )
( 0.03049068525 1.642246752e-05 0.0001839972974 )
( 0.03091189079 0.0001065354518 0.0001594681089 )
( 0.02856798656 -0.0004779488081 0.0001097948189 )
( 0.0279683806 -0.0006779398536 5.030550528e-05 )
( 0.02702600881 -0.0009399617556 -4.22362682e-05 )
( 0.03127786145 0.0001841483172 0.000130819928 )
( 0.03158343956 0.0002503350843 0.000107740474 )
( 0.03180392832 0.0003015492694 7.884656952e-05 )
( 0.03190897405 0.0003350762127 5.202346802e-05 )
( 0.03187906742 0.0003534248972 5.084595614e-05 )
( 0.03168321773 0.0003569853725 7.835736324e-05 )
( 0.03120242804 0.0003317099181 0.0001197536913 )
( 0.03061909787 0.0003247628338 0.0001416696759 )
( 0.03066679835 0.0003088378289 0.0001414957078 )
( 0.02965988033 0.000281038665 0.0001455024467 )
( 0.02972728759 0.0002672497067 0.0001461395732 )
( 0.02863866836 0.0002528007608 0.0001357058354 )
( 0.02873487957 0.0002412926551 0.0001374011918 )
( 0.02702910639 0.0001915764879 2.165226215e-05 )
( 0.02721438557 0.000192413936 9.856277757e-05 )
( 0.02905786783 -0.0004586218856 0.0001393059501 )
( 0.02955006436 -0.0003182144137 0.0001639680995 )
( 0.03003103286 -0.000198640264 0.000185110388 )
( 0.03049565852 -8.976335812e-05 0.0001873468718 )
( 0.03092173301 8.106541827e-06 0.0001649806945 )
( 0.03129389137 9.271504678e-05 0.0001350077946 )
( 0.02852625586 -0.0006312587066 0.0001027585531 )
( 0.0278873872 -0.0008469374734 3.6253914e-05 )
( 0.02689757943 -0.001121283276 -5.350913125e-05 )
( 0.03160786629 0.0001655368105 0.0001103963223 )
( 0.03183996677 0.0002238855814 8.081152191e-05 )
( 0.03195796534 0.0002647984657 5.208306538e-05 )
( 0.03193976358 0.0002901786938 4.860676927e-05 )
( 0.03175619245 0.0003013646929 7.535155601e-05 )
( 0.0312908031 0.0002853901242 0.0001178481834 )
( 0.03072747216 0.0002854006307 0.0001411164994 )
( 0.03077025712 0.0002690845286 0.0001408464886 )
( 0.02979169413 0.0002504127624 0.0001465543028 )
( 0.02985249087 0.0002357731573 0.0001470376446 )
( 0.02881498076 0.0002269361576 0.0001378252782 )
( 0.02888932452 0.0002133704984 0.0001384760981 )
( 0.02724296413 0.0001740643929 0.0001171711483 )
( 0.02736669406 0.0001637177484 0.0001186549489 )
( 0.02474806271 0.0001104170951 -5.4430413e-05 )
( 0.02561277896 0.0001288125059 7.870585978e-05 )
( 0.02903270349 -0.0005968978512 0.0001347479993 )
( 0.02953985892 -0.0004434865841 0.0001601779804 )
( 0.03002542257 -0.0003135874576 0.0001835878065 )
( 0.0304928422 -0.0001962671231 0.0001898074843 )
( 0.0309237875 -9.023114399e-05 0.0001699464046 )
( 0.03130219132 1.760964324e-06 0.0001389568934 )
( 0.03162357584 8.143700688e-05 0.0001127528521 )
( 0.0284743011 -0.0007839469472 9.45461652e-05 )
( 0.02779676393 -0.00101195008 2.203554686e-05 )
( 0.02673880942 -0.001303808298 -6.037003914e-05 )
( 0.03186672181 0.0001469483832 8.270797116e-05 )
( 0.0319968164 0.0001953016472 5.263349158e-05 )
( 0.03199028596 0.0002276589948 4.709385394e-05 )
( 0.0318184495 0.000246071897 7.278719568e-05 )
( 0.03136888146 0.0002390364534 0.0001158971427 )
( 0.03082391247 0.0002454491623 0.0001402582711 )
( 0.03086210229 0.000229050027 0.0001398635504 )
( 0.02991109528 0.0002183897886 0.0001473458542 )
( 0.02996580116 0.0002033135388 0.0001475829777 )
( 0.0289598424 0.0001994368067 0.0001390255638 )
( 0.02902583592 0.0001861566416 0.0001398361637 )
( 0.02745943703 0.0001528091088 0.0001194508513 )
( 0.02754164487 0.000142626639 0.0001197930324 )
( 0.02577370405 0.0001224265725 9.958059672e-05 )
( 0.02591482736 0.0001142954279 0.0001011653658 )
( 0.01827441715 3.517775622e-05 -4.598043233e-05 )
( 0.01808035374 3.76518401e-05 3.281958561e-05 )
( 0.02899555117 -0.0007340845186 0.0001297878625 )
( 0.02951883897 -0.0005686900113 0.0001565417915 )
( 0.03001097217 -0.0004282718 0.0001816446893 )
( 0.03048167191 -0.0003026196209 0.0001914284949 )
( 0.03091759421 -0.0001884622616 0.0001743395114 )
( 0.0313025862 -8.879324741e-05 0.0001427469397 )
( 0.03163100779 -2.093587e-06 0.0001148746014 )
( 0.03188393265 7.063496014e-05 8.44811002e-05 )
( 0.02840744704 -0.0009335870855 8.50100696e-05 )
( 0.02768303454 -0.001172266784 8.656373211e-06 )
( 0.02657714486 -0.001462506945 -6.397363177e-05 )
( 0.0320266895 0.0001265082828 5.357371265e-05 )
( 0.03203100711 0.000165945763 4.625976726e-05 )
( 0.03187026456 0.0001913729648 7.075972098e-05 )
( 0.03143481538 0.000192973559 0.0001140019594 )
( 0.03090933338 0.0002053911303 0.0001391494588 )
( 0.03094267659 0.0001891572174 0.0001385633659 )
( 0.03001780435 0.0001860098855 0.000147514671 )
( 0.03006627597 0.0001707369956 0.0001474022429 )
( 0.02908967994 0.0001720452565 0.000140335047 )
( 0.02914904431 0.0001587264414 0.0001407068048 )
( 0.02761772275 0.0001325024205 0.0001201893028 )
( 0.02768910117 0.0001222760475 0.0001208718895 )
( 0.0260167066 0.0001057727277 0.0001016502792 )
( 0.02610434964 9.718562796e-05 0.0001019038609 )
( 0.01859256066 3.133210703e-05 4.45959231e-05 )
( 0.01872015931 2.157443305e-05 5.658295413e-05 )
( 0.01236003451 1.17466052e-05 -2.401403435e-05 )
( 0.0123865772 1.373919713e-05 1.234421325e-05 )
( 0.02894335426 -0.0008689931128 0.000124191778 )
( 0.02948493138 -0.0006923754117 0.0001530243171 )
( 0.02998679131 -0.0005422959221 0.0001793957636 )
( 0.03046196885 -0.000408271706 0.0001922692172 )
( 0.03090295009 -0.0002862652764 0.0001781368046 )
( 0.03129478917 -0.0001788821537 0.0001464353409 )
( 0.03163005039 -8.506781887e-05 0.0001168678209 )
( 0.03189183399 -5.116507964e-06 8.612610691e-05 )
( 0.03204705194 5.835046613e-05 5.481841072e-05 )
( 0.02832210809 -0.001078608097 7.443894719e-05 )
( 0.02754882351 -0.001325037912 -2.525692253e-06 )
( 0.02640336193 -0.001619670657 -6.490411761e-05 )
( 0.03206228465 0.0001050265637 4.605428694e-05 )
( 0.03191236034 0.0001374066924 6.930522795e-05 )
( 0.03149063513 0.0001474430173 0.0001120755842 )
( 0.03098263592 0.0001656672248 0.0001377965673 )
( 0.03101057187 0.0001496105251 0.0001372017432 )
( 0.03011193499 0.0001535176998 0.000147101935 )
( 0.03015474044 0.0001382342598 0.0001466590184 )
( 0.02920537256 0.0001448145631 0.0001408339449 )
( 0.02925800532 0.0001315292029 0.0001409272663 )
( 0.02775633894 0.0001120059096 0.0001210758637 )
( 0.02782000042 0.0001017540562 0.0001213571159 )
( 0.02618446574 8.870877355e-05 0.000102428894 )
( 0.02625878155 8.033591439e-05 0.0001029184277 )
( 0.01879734173 1.564390368e-05 5.696035805e-05 )
( 0.01885476708 1.14004979e-05 5.715974839e-05 )
( 0.01263226569 8.67595918e-06 1.212199732e-05 )
( 0.01270406693 3.365391422e-06 3.799336264e-05 )
( 0.007755892351 5.190202955e-06 -1.69229952e-06 )
( 0.008551483974 6.437390766e-06 2.076818237e-05 )
( 0.0288743265 -0.0009995471919 0.0001177664453 )
( 0.02943736687 -0.0008137713885 0.0001495460456 )
( 0.02995158732 -0.0006545730284 0.000176968606 )
( 0.03043291159 -0.0005127512268 0.0001924084208 )
( 0.03087980859 -0.0003831610957 0.0001812726841 )
( 0.03127849102 -0.0002682615886 0.0001500444923 )
( 0.03162066266 -0.000167386097 0.0001188313254 )
( 0.03189089522 -8.028645243e-05 8.765655366e-05 )
( 0.03205744922 -9.216138096e-06 5.631211752e-05 )
( 0.03208385408 4.485369936e-05 4.641286432e-05 )
( 0.02821925282 -0.001216788078 6.380668492e-05 )
( 0.02740618959 -0.001467034104 -1.094698837e-05 )
( 0.02623657882 -0.001760830055 -6.305961142e-05 )
( 0.03194404393 8.421368693e-05 6.842716539e-05 )
( 0.0315349102 0.0001024562371 0.0001105558913 )
( 0.03104494512 0.0001264340535 0.0001362063922 )
( 0.03106873855 0.0001105861447 0.0001355803543 )
( 0.03019405529 0.0001213412033 0.0001461616921 )
( 0.0302298069 0.0001060407958 0.0001457490434 )
( 0.02932893857 0.0001125165581 0.0001411403646 )
( 0.02937402949 9.934686386e-05 0.0001410692057 )
( 0.02787959576 9.157529712e-05 0.0001216247911 )
( 0.02793579549 8.138905105e-05 0.0001217527242 )
( 0.02632814832 7.210608601e-05 0.0001031515349 )
( 0.02639276721 6.399003178e-05 0.000103417995 )
( 0.01890165359 8.085416994e-06 5.740853521e-05 )
( 0.01894101873 5.198992312e-06 5.789870556e-05 )
( 0.01274062321 1.041946575e-06 3.816293611e-05 )
( 0.01276171766 -5.011254416e-07 3.824270971e-05 )
( 0.008352589794 3.6792228e-06 1.09491848e-05 )
( 0.008047020063 3.370805643e-07 3.30230032e-05 )
( 0.00549165858 3.973659659e-06 2.110068817e-05 )
( 0.00578914443 4.406816515e-06 3.50664086e-05 )
( 0.02878873609 -0.001123922411 0.0001107182688 )
( 0.02937627025 -0.0009310343303 0.0001459148625 )
( 0.02990469337 -0.0007642392302 0.0001744570618 )
( 0.03039377183 -0.000615245197 0.0001919585338 )
( 0.03084737435 -0.0004786248319 0.000183702301 )
( 0.03125331551 -0.0003565561201 0.0001535141782 )
( 0.03160271421 -0.0002488242462 0.0001208534304 )
( 0.0318810679 -0.000154768175 8.91069576e-05 )
( 0.03205803037 -7.618778181e-05 5.799182327e-05 )
( 0.03209547698 -1.463516674e-05 4.726882253e-05 )
( 0.03196569905 3.177138569e-05 6.809404294e-05 )
( 0.02810136043 -0.001346011879 5.394767868e-05 )
( 0.02725005336 -0.001597666182 -1.720869113e-05 )
( 0.0260224212 -0.00189022813 -6.451721856e-05 )
( 0.03156829625 5.819597936e-05 0.0001092848615 )
( 0.03109553829 8.764696395e-05 0.0001346779609 )
( 0.03111304715 7.209282921e-05 0.0001342238102 )
( 0.03026336059 8.946958405e-05 0.000145328595 )
( 0.03029429913 7.424463547e-05 0.0001448364637 )
( 0.02941562049 8.563735901e-05 0.000140594464 )
( 0.02945336699 7.256383105e-05 0.000140380318 )
( 0.02801151387 6.707795546e-05 0.0001221192797 )
( 0.02805880643 5.701327973e-05 0.000122352707 )
( 0.02645280026 5.600623263e-05 0.0001037495458 )
( 0.02650872245 4.804958007e-05 0.0001037697948 )
( 0.01897384785 2.562057034e-06 5.806867921e-05 )
( 0.01900075749 3.912742841e-08 5.878460797e-05 )
( 0.01277469844 -1.681678668e-06 3.852277223e-05 )
( 0.01278186962 -2.656774541e-06 3.870128057e-05 )
( 0.008061555214 -4.361791355e-07 3.318081144e-05 )
( 0.008066534065 -1.06678408e-06 3.317000665e-05 )
( 0.005268394481 2.15123714e-06 2.081610728e-05 )
( 0.005521895364 6.355180631e-07 3.314207424e-05 )
( 0.02868925035 -0.001240512123 0.0001034715824 )
( 0.02930121683 -0.001042585936 0.0001419904729 )
( 0.0298463311 -0.0008699598256 0.0001718237763 )
( 0.03034462407 -0.0007148865261 0.0001910491119 )
( 0.03080501221 -0.0005720038316 0.0001854365109 )
( 0.0312191397 -0.0004433053255 0.0001567421859 )
( 0.03157573566 -0.0003290570457 0.0001229836926 )
( 0.03186219931 -0.0002283544163 9.052560199e-05 )
( 0.03204876184 -0.0001424868533 5.979347043e-05 )
( 0.0320973359 -7.346769416e-05 4.855170118e-05 )
( 0.03197747841 -1.997301842e-05 6.82363534e-05 )
( 0.03159217909 1.445085582e-05 0.0001081889495 )
( 0.02796989493 -0.001464957604 4.518934657e-05 )
( 0.02708211541 -0.001715052989 -2.130291068e-05 )
( 0.02583399042 -0.001994843595 -6.618873886e-05 )
( 0.03113314509 4.957585043e-05 0.0001334543922 )
( 0.03114682436 3.411482248e-05 0.0001327001228 )
( 0.03032200783 5.792977754e-05 0.000144075806 )
( 0.03034562245 4.274218736e-05 0.0001433748985 )
( 0.02948815376 5.909272659e-05 0.0001403015631 )
( 0.02952065133 4.617856757e-05 0.0001401704212 )
( 0.02810231224 4.690102651e-05 0.0001222805149 )
( 0.02814222686 3.691014354e-05 0.0001223912113 )
( 0.02658265457 3.68999863e-05 0.0001041153737 )
( 0.02662815154 2.911737829e-05 0.0001043455632 )
( 0.01902232692 -2.370008588e-06 5.910122854e-05 )
( 0.01903861016 -4.727312444e-06 5.909555694e-05 )
( 0.01275582612 -3.532347591e-06 3.875440598e-05 )
( 0.0127539169 -4.334057394e-06 3.932523759e-05 )
( 0.008048347197 -1.521430818e-06 3.283082697e-05 )
( 0.008044336922 -1.881900744e-06 3.2947406e-05 )
( 0.005508307368 -5.270223369e-09 3.280565579e-05 )
( 0.005492360331 -4.968335929e-07 3.237143756e-05 )
( 0.02857676893 -0.001348045887 9.646508988e-05 )
( 0.02921349369 -0.001147169038 0.000137795374 )
( 0.02977652848 -0.000970379333 0.0001689945348 )
( 0.0302852001 -0.0008106805035 0.0001897491311 )
( 0.03075307608 -0.0006625358365 0.0001865373633 )
( 0.0311752893 -0.0005279670586 0.0001596209186 )
( 0.03153988346 -0.0004076773766 0.0001252242946 )
( 0.03183372319 -0.0003007529012 9.196844621e-05 )
( 0.03202988207 -0.0002079457481 6.166350795e-05 )
( 0.03208927438 -0.0001315954869 5.018527372e-05 )
( 0.03197954968 -7.10436143e-05 6.878306158e-05 )
( 0.03160541505 -2.882247463e-05 0.0001075190376 )
( 0.0311621204 1.173359124e-05 0.000131785986 )
( 0.03117207251 -3.365987141e-06 0.0001312630047 )
( 0.02782660536 -0.001572179142 3.799449041e-05 )
( 0.0269046966 -0.001817318844 -2.414665869e-05 )
( 0.02563928068 -0.002084771171 -6.735902571e-05 )
( 0.03036651015 2.69809243e-05 0.0001430853445 )
( 0.03038482182 1.18370217e-05 0.0001423782232 )
( 0.02954974025 3.278230724e-05 0.0001395021973 )
( 0.02957505919 2.0013209e-05 0.0001390708931 )
( 0.02817856707 2.700091864e-05 0.0001225708256 )
( 0.02821181528 1.716782754e-05 0.000122651385 )
( 0.02666935325 2.137550473e-05 0.0001045023382 )
( 0.02670634724 1.373590203e-05 0.0001046486577 )
( 0.01905251853 -8.068943316e-06 5.917878298e-05 )
( 0.01905668713 -1.030356361e-05 5.925486039e-05 )
( 0.01274812222 -5.092175343e-06 3.97035983e-05 )
( 0.01273848768 -5.835418051e-06 3.958220987e-05 )
( 0.00792225264 -2.210488901e-06 3.287858272e-05 )
( 0.007888749242 -2.489020972e-06 3.302506593e-05 )
( 0.005461327732 -8.191609595e-07 3.170490163e-05 )
( 0.005457715131 -1.075653699e-06 3.181951251e-05 )
( 0.02845282853 -0.0014452748 9.008071356e-05 )
( 0.02911403403 -0.00124370947 0.0001335310371 )
( 0.02969541028 -0.001064380864 0.0001659526752 )
( 0.03021585941 -0.0009015601827 0.0001880728087 )
( 0.03069194965 -0.0007493965095 0.0001870867272 )
( 0.03112214059 -0.0006098786835 0.0001620769326 )
( 0.03149498254 -0.0004842065682 0.0001275156974 )
( 0.0317960456 -0.000371588103 9.349067113e-05 )
( 0.03200143948 -0.0002723115613 6.357685197e-05 )
( 0.03207147121 -0.0001888858678 5.209063602e-05 )
( 0.0319718197 -0.000121394216 6.967326044e-05 )
( 0.03160854802 -7.142589311e-05 0.0001071329316 )
( 0.03118093498 -2.558891356e-05 0.0001306457125 )
( 0.03118574619 -4.077547419e-05 0.0001300169388 )
( 0.03040093929 -3.831866707e-06 0.0001416904706 )
( 0.03041446581 -1.870552478e-05 0.0001410572004 )
( 0.02767260186 -0.001666362048 3.254129479e-05 )
( 0.02672084607 -0.001903167344 -2.70956516e-05 )
( 0.02546735853 -0.002148557454 -6.953892444e-05 )
( 0.02959757857 6.995521289e-06 0.000138942487 )
( 0.02961718105 -5.668218364e-06 0.0001385070937 )
( 0.02824154124 7.383427146e-06 0.0001227638131 )
( 0.02826747485 -2.286181598e-06 0.0001225522283 )
( 0.02673949488 6.16401212e-06 0.0001048095655 )
( 0.02676878311 -1.313359007e-06 0.0001048280028 )
( 0.01905623823 -1.249481375e-05 5.937973765e-05 )
( 0.01905125752 -1.464078923e-05 5.943400902e-05 )
( 0.01271779183 -6.892774763e-06 3.993891733e-05 )
( 0.01269966736 -7.592930615e-06 4.002994319e-05 )
( 0.007876594551 -2.737789146e-06 3.347037273e-05 )
( 0.007862128317 -2.9854491e-06 3.347627353e-05 )
( 0.005278386641 -1.304312946e-06 3.155323066e-05 )
( 0.005222334061 -1.490690238e-06 3.149140321e-05 )
( 0.02831838466 -0.001531005371 8.474056085e-05 )
( 0.02900386043 -0.001331188483 0.0001294410758 )
( 0.02960400656 -0.001151013304 0.0001627983002 )
( 0.03013659641 -0.0009865177562 0.0001860044431 )
( 0.03062142804 -0.0008317273459 0.0001871446293 )
( 0.03106065094 -0.0006883168826 0.0001640828268 )
( 0.03144115955 -0.0005580849829 0.0001297545823 )
( 0.03174972907 -0.0004404206411 9.511686221e-05 )
( 0.03196366876 -0.0003352529893 6.55206677e-05 )
( 0.03204399347 -0.000245129806 5.420218804e-05 )
( 0.03195425496 -0.000170907937 7.085975813e-05 )
( 0.03160163388 -0.000113385322 0.0001069924911 )
( 0.0311886277 -6.254250184e-05 0.0001295026159 )
( 0.03118894063 -7.736598491e-05 0.0001290537184 )
( 0.03042498231 -3.414166713e-05 0.0001403234637 )
( 0.03043214232 -4.923089728e-05 0.0001394696737 )
( 0.02963355929 -1.865870217e-05 0.0001379292953 )
( 0.02964734286 -3.097466833e-05 0.0001375028369 )
( 0.02751037106 -0.001746561145 2.80855329e-05 )
( 0.02655270696 -0.001969783334 -2.930072696e-05 )
( 0.02528972924 -0.002200731309 -7.493874e-05 )
( 0.02829025313 -1.190977218e-05 0.0001225256419 )
( 0.02830984257 -2.145613325e-05 0.0001226125314 )
( 0.02679407597 -8.751261703e-06 0.0001050341089 )
( 0.02681525238 -1.609848914e-05 0.0001051451836 )
( 0.01904172823 -1.675704152e-05 5.949593105e-05 )
( 0.01902791671 -1.883794357e-05 5.962975411e-05 )
( 0.01267837361 -8.267958037e-06 3.999514229e-05 )
( 0.01306417398 -9.335100003e-06 4.618445382e-05 )
( 0.007836889476 -3.343872777e-06 3.364388976e-05 )
( 0.00781725347 -3.576687732e-06 3.368409671e-05 )
( 0.005213339813 -1.647464615e-06 3.181688226e-05 )
( 0.005202893168 -1.805386546e-06 3.187318725e-05 )
( 0.02817564271 -0.001604386372 8.054884529e-05 )
( 0.02888403088 -0.001408634824 0.0001258270349 )
( 0.02950302884 -0.001229438931 0.0001596775692 )
( 0.03004845604 -0.001064692507 0.0001835599251 )
( 0.03054212965 -0.0009086691425 0.0001867276878 )
( 0.0309898369 -0.0007625678554 0.0001656266977 )
( 0.031378977 -0.0006287004217 0.0001318419527 )
( 0.0316946581 -0.0005067466991 9.682297241e-05 )
( 0.03191656992 -0.0003963789786 6.748947635e-05 )
( 0.0320068486 -0.0003000553988 5.645566853e-05 )
( 0.0319268927 -0.0002194013359 7.230389747e-05 )
( 0.03158446029 -0.0001545894338 0.0001070725848 )
( 0.03118575364 -9.879401478e-05 0.0001286376792 )
( 0.03118152916 -0.0001133473925 0.0001282542944 )
( 0.0304367952 -6.405677414e-05 0.0001387466909 )
( 0.03043839335 -7.867685053e-05 0.0001381444017 )
( 0.02965783514 -4.373724005e-05 0.0001370041573 )
( 0.02966957167 -5.581795995e-05 0.0001365758071 )
( 0.02832524106 -3.093797568e-05 0.000122399797 )
( 0.02833785489 -4.01891557e-05 0.0001223658619 )
( 0.0273424685 -0.001812328119 2.420351484e-05 )
( 0.02636733092 -0.00202266057 -3.236589691e-05 )
( 0.02508803084 -0.002238872461 -7.806716167e-05 )
( 0.02683267929 -2.338684499e-05 0.000105443105 )
( 0.02684603818 -3.057863796e-05 0.0001056187248 )
( 0.01900994778 -2.08644833e-05 5.971543578e-05 )
( 0.01898769289 -2.283498725e-05 5.971716018e-05 )
( 0.01352811139 -1.052281004e-05 4.03533777e-05 )
( 0.01349572651 -1.122440699e-05 4.033384539e-05 )
( 0.008140124381 -4.120500762e-06 3.876878691e-05 )
( 0.01018899865 -6.200976713e-06 5.89418014e-05 )
( 0.005190977827 -1.956122787e-06 3.191233554e-05 )
( 0.005177758634 -2.109966772e-06 3.192892473e-05 )
( 0.02802653424 -0.001664870651 7.717590779e-05 )
( 0.02875595912 -0.001475277357 0.0001229476038 )
( 0.0293934904 -0.001298887655 0.0001567902509 )
( 0.0299521964 -0.00113532471 0.0001808131783 )
( 0.03045443445 -0.0009794360958 0.0001858336473 )
( 0.03091099858 -0.0008319104672 0.0001667132456 )
( 0.03130815923 -0.0006954355631 0.0001336852729 )
( 0.03163108602 -0.000570037635 9.855540702e-05 )
( 0.03186014667 -0.0004552427563 6.946989743e-05 )
( 0.03195999563 -0.0003533412528 5.880103708e-05 )
( 0.031889759 -0.000266651361 7.395594002e-05 )
( 0.03155701607 -0.0001948730787 0.00010735049 )
( 0.03117216006 -0.0001343547046 0.0001280534634 )
( 0.03116293624 -0.0001485855173 0.0001277337724 )
( 0.03043669462 -9.355461225e-05 0.0001374246494 )
( 0.03043266013 -0.0001078253626 0.0001369858801 )
( 0.02966934256 -6.828009646e-05 0.0001358048903 )
( 0.0296706073 -8.012986655e-05 0.0001352537074 )
( 0.02834682912 -4.939265636e-05 0.0001221946732 )
( 0.02835682593 -5.842194878e-05 0.0001221400307 )
( 0.02685502358 -3.767256203e-05 0.0001054512322 )
( 0.02686076425 -4.464406447e-05 0.0001056151305 )
( 0.02717048302 -0.001863323268 2.091966599e-05 )
( 0.02617726848 -0.002060085535 -3.580388875e-05 )
( 0.02488289215 -0.00226010941 -7.633952191e-05 )
( 0.01893554628 -2.477342423e-05 6.054318874e-05 )
( 0.01893135346 -2.670698996e-05 6.020590445e-05 )
( 0.0134604685 -1.190778403e-05 4.039653504e-05 )
( 0.01342213154 -1.255981715e-05 4.049132622e-05 )
( 0.01214953233 -8.378911843e-06 3.589178959e-05 )
( 0.01211348921 -8.824453289e-06 3.58569705e-05 )
( 0.005856059492 -2.825135198e-06 4.241412171e-05 )
( 0.00917842146 -5.575794603e-06 7.04217382e-05 )
( 0.0278727226 -0.001712160418 7.423258648e-05 )
( 0.02862125821 -0.001530531561 0.0001207467285 )
( 0.02927651629 -0.001358747366 0.0001543482504 )
( 0.02984835207 -0.001197744859 0.000177911279 )
( 0.03035936318 -0.001043330878 0.00018446584 )
( 0.03082396463 -0.000895661884 0.0001673562219 )
( 0.03122958355 -0.0007576727658 0.0001352231629 )
( 0.03155918792 -0.0006297584623 0.0001002363715 )
( 0.03179499134 -0.0005113779334 7.144696428e-05 )