/*--------------------------------*- C++ -*----------------------------------*\
  =========                 |
  \\      /  F ield         | OpenFOAM: The Open Source CFD Toolbox
   \\    /   O peration     | Website:  https://openfoam.org
    \\  /    A nd           | Version:  8
     \\/     M anipulation  |
\*---------------------------------------------------------------------------*/






FoamFile
{
    version     2.0;
    format      ascii;
    class       volScalarField;
    location    "0";
    object      V;
}
// * * * * * * * * * * * * * * * * * * * * * * * * * * * * * * * * * * * * * //

dimensions      [0 3 0 0 0 0 0];


internalField   nonuniform List<scalar> 
15041
(
0.001041047208
0.00104526428
0.001058436475
0.001035617574
0.001061058811
0.00107631511
0.00103310959
0.001061147286
0.001079363745
0.001092182029
0.001032730573
0.001059203739
0.001080573265
0.001095364555
0.001104993878
0.001033719564
0.001058322605
0.001080321193
0.001096925309
0.001108029202
0.001114249362
0.001035406899
0.001058272634
0.001079424247
0.001097187834
0.001109498481
0.001116465539
0.001128468258
0.00103718948
0.00105877969
0.001078778819
0.001096124919
0.001110029847
0.001117612588
0.001130986682
0.001112190299
0.001038562168
0.00105939953
0.001078601154
0.001094694385
0.001110086788
0.001118211028
0.00113114469
0.001112925349
0.001101085073
0.001039103538
0.001059825404
0.001078788293
0.001093853052
0.001105720841
0.001119300242
0.001130764825
0.001112468318
0.001102704947
0.001086197071
0.00103873725
0.001059787894
0.00107848488
0.001094143822
0.001101714545
0.001125899627
0.001131421899
0.001111358781
0.00110289606
0.001087673047
0.001067673061
0.001037622379
0.001058310263
0.001078098717
0.001095799832
0.001104519162
0.001131510105
0.001133006664
0.001110468548
0.001102438971
0.001088028494
0.001068481029
0.00104603102
0.001056314207
0.001035831087
0.001077783747
0.001092366188
0.001108887521
0.001133060831
0.001135160819
0.001110277978
0.001101936264
0.001087713142
0.001068405756
0.001045818122
0.001022398109
0.001070858142
0.001054611158
0.001032504116
0.001091368541
0.001119703971
0.001136162674
0.001133558407
0.001110984361
0.00110195715
0.001087251624
0.001067721512
0.00104474718
0.001020809157
0.0009992166182
0.00110407728
0.001066909797
0.001053776322
0.001028578262
0.001132532943
0.001140761556
0.001131157272
0.001116634128
0.001103328527
0.001087161247
0.00106686253
0.001043078764
0.001017977499
0.0009981154767
0.001032343907
0.001117967539
0.001139400059
0.001071791263
0.001046238139
0.001024720571
0.001146523542
0.001132942262
0.001122719452
0.001105724045
0.001087709777
0.00106625198
0.001041360073
0.001014043486
0.0009856916508
0.0009532767092
0.0003173822647
0.0003258776614
0.001125236969
0.001146032771
0.001150117187
0.001086278518
0.0010405976
0.001011904813
0.001135338284
0.001125099795
0.001108585267
0.001088869796
0.001066121912
0.001040140671
0.001011499738
0.0009810606865
0.0009481744613
0.000351126713
0.0003509691869
0.0003277414979
0.0003272145732
0.00113320489
0.001152516529
0.001150713863
0.001140479409
0.001103453896
0.001054601712
0.001001421269
0.00112781662
0.001111354098
0.001090451041
0.001066481805
0.001039451878
0.001009805761
0.0009783443957
0.0009454665452
0.0003521226137
0.0003520209982
0.0003303519368
0.0003349750872
0.0003216310646
0.000320649881
0.001141285403
0.00115631121
0.001153222608
0.001144470583
0.001130585298
0.001112541102
0.001069854286
0.001002102262
0.001113557622
0.001092203939
0.001067237724
0.001039242029
0.001008718881
0.0009764997486
0.0009434775241
0.000352099754
0.000351728863
0.0003359778074
0.0003363090476
0.0003208793127
0.0003219612623
0.0003026522163
0.0003156587217
0.001150970187
0.001159459149
0.001154579407
0.001146507915
0.001133122956
0.001115572421
0.001120914512
0.001074804898
0.001003342946
0.001093888199
0.001068244491
0.001039425837
0.001008114223
0.0009752034292
0.0009417982061
0.0003515056146
0.00035111636
0.0003362018779
0.0003359711185
0.0003227948697
0.0003229206506
0.0003161638503
0.0003161894355
0.0003261995959
0.0003190144936
0.001157320869
0.001159761085
0.001155965996
0.001148006679
0.001135098559
0.001117357265
0.00109538392
0.001132637928
0.001078624779
0.001004472552
0.001069342283
0.001039896198
0.001007904449
0.0009743541278
0.0009404541754
0.0003508503683
0.0003505145962
0.0003356494248
0.00033533214
0.0003227805345
0.0003225194901
0.0003162612473
0.0003162679263
0.0003201368275
0.0003208108924
0.0001691596993
0.0001691113412
0.001154910553
0.001157800792
0.001156529355
0.001148926708
0.001136404073
0.001118837443
0.001096701159
0.001070408092
0.001140805219
0.00108105955
0.00100518201
0.001040536583
0.001008001751
0.0009738897244
0.0009394798887
0.0003502808505
0.0003500266284
0.0003350138922
0.00033473164
0.0003222193996
0.0003219105457
0.0003161613469
0.0003159843409
0.0003212467405
0.0003216264843
0.0001700301422
0.0001701130564
8.820523137e-05
8.955290965e-05
0.001150894315
0.001157456307
0.001156405833
0.001149481095
0.001137265726
0.001119952235
0.001097816031
0.001071377282
0.001041242134
0.001142650131
0.001082081762
0.001005526038
0.001008312627
0.0009737420613
0.0009388700893
0.0003498496265
0.0003496838167
0.0003344754731
0.0003342627703
0.000321617752
0.0003213509631
0.0003157626539
0.0003155224862
0.0003218747223
0.0003219724785
0.0001699942669
0.0001699630433
9.015281352e-05
9.009859751e-05
4.612868455e-05
4.739652891e-05
0.001151548552
0.001156658031
0.001155935354
0.001149664284
0.001137790372
0.001120722431
0.001098704896
0.001072221647
0.001041936566
0.001008747091
0.001143654439
0.001082582606
0.001005697108
0.0009738322975
0.0009385796286
0.0003495658402
0.0003494809733
0.0003340842632
0.0003339460984
0.0003211194281
0.0003209249166
0.0003152841666
0.0003150635326
0.000321958136
0.0003218667922
0.000169964189
0.0001699599224
8.990716896e-05
8.980086822e-05
4.775779854e-05
4.769033849e-05
2.416212611e-05
2.507763903e-05
0.001152032327
0.001155956579
0.00115561796
0.001149603746
0.001138071148
0.00112122871
0.001099367202
0.001072922317
0.001042572694
0.001009229906
0.0009740796623
0.001144197613
0.001082841019
0.001005792991
0.0009385392862
0.0003494139313
0.0003493942236
0.0003338413736
0.000333768544
0.0003207689232
0.0003206490018
0.0003148702142
0.0003147092638
0.0003217428489
0.0003216112812
0.0001699417516
0.0001699002155
8.975038835e-05
8.972611918e-05
4.753681389e-05
4.744234031e-05
2.528740559e-05
2.523488386e-05
0.001152383954
0.001155980063
0.001155297703
0.00114944394
0.001138167919
0.001121536783
0.001099831488
0.001073473036
0.001043123636
0.001009706218
0.000974411862
0.0009386729199
0.001144513541
0.001082988491
0.001005860591
0.0003493661085
0.0003493928186
0.0003337242091
0.000333701535
0.0003205627011
0.000320506019
0.0003145820213
0.0003144870953
0.0003214841701
0.0003213791082
0.0001698537674
0.0001698074532
8.971240612e-05
8.969397677e-05
4.739359495e-05
4.737124029e-05
2.513044973e-05
2.506284475e-05
0.001152615181
0.001156101771
0.001155101184
0.001149280542
0.001138150652
0.001121698986
0.001100138515
0.001073882724
0.001043576299
0.001010140441
0.0009747716452
0.0009389101561
0.0003493915467
0.0003494469088
0.001144705922
0.001083083678
0.001005919205
0.0003337008974
0.0003337122815
0.000320474791
0.0003204648508
0.0003144222558
0.0003143841354
0.0003212972499
0.0003212373263
0.0001697592203
0.0001697232512
8.967758224e-05
8.966266226e-05
4.736223354e-05
4.735434319e-05
2.50268015e-05
2.501054245e-05
0.001152766803
0.001156221782
0.0011550697
0.001149139791
0.0011380798
0.001121758234
0.001100325195
0.001074171212
0.001043929445
0.001010512519
0.0009751186236
0.0009391934218
0.0003494622398
0.0003495314597
0.0003337395034
0.0003337711703
0.001144827676
0.001083152038
0.001005973124
0.0003204715779
0.0003204915707
0.0003143688212
0.0003143719924
0.0003212006573
0.0003211890414
0.0001696958383
0.000169674285
8.96452517e-05
8.963395409e-05
4.734945307e-05
4.734585979e-05
2.500496928e-05
2.500177413e-05
0.001152867768
0.001156316569
0.001155094525
0.001149056675
0.001137997522
0.00112175404
0.001100423212
0.001074361937
0.001044191061
0.001010814403
0.0009754278096
0.0009394805126
0.0003495554277
0.0003496272314
0.0003338134982
0.0003338549282
0.0003205208148
0.0003205572968
0.001144905749
0.001083203591
0.00100601906
0.0003143897252
0.0003144179854
0.0003211939955
0.0003212145176
0.000169660903
0.0001696603288
8.962550741e-05
8.96179193e-05
4.734038755e-05
4.733775864e-05
2.5001033e-05
2.500118808e-05
0.001152936427
0.001156387666
0.001155134366
0.001149028373
0.001137929091
0.001121719215
0.00110046045
0.001074477513
0.001044374524
0.001011047068
0.0009756866551
0.0009397439677
0.0003496540816
0.0003497208831
0.0003339027741
0.0003339461943
0.0003205979198
0.0003206415553
0.0003144533469
0.0003144938276
0.001144955291
0.001083241567
0.00100605299
0.0003212487023
0.0003212902807
0.0001696635347
0.0001696727036
8.961291366e-05
8.961403908e-05
4.733583627e-05
4.733340364e-05
2.500011508e-05
2.500028723e-05
0.001152983932
0.001156440839
0.001155174123
0.001149029139
0.001137886963
0.001121677678
0.001100461287
0.001074538568
0.001044495214
0.001011217491
0.0009758919756
0.0009399689025
0.0003497470095
0.0003498045147
0.0003339928
0.0003340332913
0.0003206854492
0.0003207289671
0.0003145381716
0.0003145842711
0.0003213356412
0.0003213832036
0.001144986319
0.001083267738
0.001006076199
0.0001696885104
0.0001697056998
8.961534921e-05
8.961882885e-05
4.733154107e-05
4.733247408e-05
2.500043148e-05
2.49998583e-05
0.001153017545
0.001156481306
0.001155209738
0.001149043384
0.001137869079
0.001121643811
0.001100445286
0.001074563486
0.001044568348
0.001011335784
0.0009760469628
0.0009401501649
0.0003498278889
0.0003498742312
0.0003340748707
0.0003341099437
0.0003207702183
0.0003208094368
0.0003146306252
0.000314675074
0.000321436449
0.0003214941529
0.0001697224057
0.0001697379785
0.001145006643
0.001083285873
0.0009891409329
0.001006098501
8.96253797e-05
8.963177146e-05
4.733276783e-05
4.733375146e-05
2.49992016e-05
2.499975453e-05
0.001153042978
0.001156513256
0.001155240942
0.001149063202
0.001137867586
0.00112162332
0.001100426116
0.001074567692
0.00104460797
0.001011413162
0.0009761584713
0.0009402893055
0.0003498940275
0.0003499293001
0.0003341446173
0.0003341730832
0.0003208455543
0.0003208789777
0.0003147167675
0.0003147555939
0.0003215468946
0.0003216017093
0.0001697583059
0.0001697834948
8.963707779e-05
8.964106452e-05
0.001145022819
0.001083303652
0.0009891682967
0.0003804697001
0.0003804744558
0.001006139118
4.733610027e-05
4.733800462e-05
2.499964513e-05
2.499967665e-05
0.001153066096
0.001156540705
0.001155268949
0.00114908515
0.001137876007
0.00112161568
0.001100411549
0.001074562893
0.001044626262
0.001011460422
0.0009762348982
0.0009403916761
0.0003499456367
0.0003499712276
0.0003342003354
0.000334222413
0.0003209087061
0.0003209351638
0.0003147919814
0.0003148255813
0.00032165072
0.000321692033
0.0001698018084
0.0001698252674
8.964803477e-05
8.96582924e-05
4.733903059e-05
4.733912731e-05
0.001145040964
0.001083334022
0.0009892134104
0.0003804795194
0.0003804860344
0.0003713661815
0.0003713702663
0.001006229939
2.500028115e-05
2.5000498e-05
0.001153094182
0.001156568836
0.001155296208
0.001149108343
0.001137890405
0.001121617926
0.001100404505
0.00107455683
0.001044632863
0.001011487241
0.0009762846095
0.0009404638918
0.0003499845825
0.0003500022304
0.0003342431243
0.0003342599739
0.0003209579422
0.0003209779907
0.0003148558939
0.0003148816708
0.0003217369471
0.0003217805536
0.0001698437519
0.0001698546242
8.966377151e-05
8.967315429e-05
4.734091815e-05
4.734465222e-05
2.500012825e-05
2.499918e-05
0.001145068539
0.001083398416
0.0003804940896
0.0003805048903
0.000989301808
0.0003713749123
0.0003713804491
0.0003623852821
0.0003623889739
0.001153137703
0.001156605162
0.001155327031
0.001149133915
0.00113790897
0.001121627257
0.00110040493
0.001074553688
0.001044634738
0.001011501528
0.0009763153317
0.0009405124243
0.000350024228
0.0003500128665
0.0003342754354
0.0003342880203
0.0003209952228
0.0003210105877
0.0003149039446
0.0003149228144
0.0003218146841
0.0003218494716
0.0001698732633
0.0001698930945
8.967945021e-05
8.968082893e-05
4.734556722e-05
4.734890915e-05
2.499915575e-05
2.500022125e-05
0.001145117582
0.0003713874279
0.0003713966847
0.0003805200778
0.0003805405031
0.0003623930863
0.000362397923
0.0003537516459
0.0003537549566
0.001156661179
0.001153213084
0.00115536848
0.001149165197
0.00113793198
0.001121642022
0.001100411643
0.001074555002
0.001044636208
0.001011509292
0.0009763336803
0.000940543346
0.0003500322412
0.0003500388729
0.0003343079018
0.0003342990684
0.0003210238293
0.0003210354453
0.0003149406636
0.0003149547552
0.0003218732894
0.0003218957994
0.0001699033896
0.0001699196552
8.968804853e-05
8.96965257e-05
4.735053021e-05
4.734934873e-05
2.49997245e-05
2.500062875e-05
0.0003624039441
0.0003624118547
0.0003714094063
0.0003714275039
0.000353758604
0.0003537628246
0.001155431698
0.001156754739
0.001149208327
0.001137961865
0.001121662127
0.001100423663
0.001074560884
0.001044639518
0.001011514606
0.0009763448463
0.0009405623794
0.0003500477087
0.0003500443676
0.0003343151618
0.000334320653
0.0003210531312
0.0003210451418
0.0003149695873
0.0003149817229
0.0003219156005
0.0003219452296
0.0001699245554
0.0001699316046
8.969880322e-05
8.970588561e-05
4.735178922e-05
4.735512374e-05
2.500061925e-05
2.499909725e-05
0.0003537680248
0.0003537748083
0.0003624227631
0.0003624383018
0.001149273148
0.001155533668
0.001138003598
0.001121689305
0.00110044091
0.001074571107
0.001044645566
0.001011519886
0.0009763525503
0.0009405744134
0.0003500528682
0.0003500513332
0.0003343272453
0.0003343245403
0.0003210594481
0.0003210640245
0.0003150004351
0.0003149920196
0.0003219436017
0.0003219805318
0.000169936096
0.0001699588287
8.970550403e-05
8.970714161e-05
4.735491553e-05
4.735775428e-05
2.4999668e-05
2.50008035e-05
0.0003537841619
0.0003537976055
0.001138065267
0.001149374315
0.001121727379
0.001100464657
0.001074585781
0.001044654631
0.001011526327
0.0009763590825
0.0009405828641
0.0003500554145
0.0003500560711
0.0003343304486
0.0003343290396
0.0003210680469
0.0003210666769
0.0003150082388
0.000315014966
0.0003219862474
0.0003219955686
0.0001699370114
0.0001699723404
8.970721241e-05
8.97206301e-05
4.735628777e-05
4.735618502e-05
2.50000185e-05
2.500101e-05
0.00113815853
0.001121782557
0.001100497732
0.001074605863
0.001044667035
0.001011534537
0.0009763656941
0.0009405897668
0.0003500580297
0.0003500584554
0.0003343313138
0.0003343320108
0.0003210694265
0.0003210687999
0.0003150150796
0.0003150175193
0.0003220137073
0.000322038863
0.0001699550805
0.0001699796346
8.970279195e-05
8.972546528e-05
4.735524448e-05
4.736242843e-05
2.499965325e-05
2.499912275e-05
0.00112186355
0.001100544647
0.001074633423
0.001044683574
0.001011544973
0.0009763731022
0.0009405961507
0.0003500601715
0.0003500606136
0.0003343324976
0.0003343332009
0.0003210695105
0.0003210691356
0.0003150170653
0.0003150156048
0.000322028027
0.0003220345935
0.0001699807045
0.0001700031226
8.971007023e-05
8.972880416e-05
4.735099812e-05
4.736387616e-05
2.4998175e-05
2.500184075e-05
0.0011006116
0.001074671639
0.00104470574
0.00101155831
0.0009763818161
0.0009406025603
0.0003500620087
0.0003500624054
0.0003343338863
0.0003343346661
0.0003210688994
0.0003210691036
0.0003150179371
0.0003150159683
0.0003220380068
0.0003220076597
0.0001699864883
0.0001699921091
8.972643574e-05
8.974058912e-05
4.73536646e-05
4.736531633e-05
2.499511175e-05
2.500205525e-05
0.001074724756
0.00104473578
0.001011575657
0.0009763924014
0.0009406096739
0.0003500634154
0.0003500638687
0.000334335199
0.0003343356016
0.0003210697638
0.0003210703318
0.0003150139387
0.0003150154914
0.000322045654
0.0003220213562
0.000169995087
0.0001699568131
8.972847567e-05
8.97321595e-05
4.736296047e-05
4.737095637e-05
2.4995907e-05
2.500263275e-05
0.001044776542
0.001011598554
0.0009764056601
0.00094061806
0.0003500646888
0.0003500654582
0.0003343357647
0.0003343358743
0.000321070655
0.000321070659
0.0003150170638
0.0003150178701
0.0003220262166
0.0003220329265
0.000170002579
0.0001699695602
8.973378192e-05
8.970744409e-05
4.736348017e-05
4.736568508e-05
2.500092375e-05
2.500522525e-05
0.001011628967
0.0009764226968
0.000940628142
0.0003500662799
0.0003500674906
0.000334335974
0.0003343361957
0.0003210703416
0.0003210698042
0.0003150182197
0.0003150184299
0.0003220372928
0.0003220385018
0.0001699776324
0.000169984185
8.973863977e-05
8.971550979e-05
4.736640909e-05
4.735083486e-05
2.5000898e-05
2.5002166e-05
0.0009764449114
0.0009406405512
0.0003500682205
0.0003500699147
0.0003343365839
0.0003343370334
0.000321069319
0.0003210690922
0.000315017891
0.000315016617
0.0003220388836
0.0003220404895
0.0001699875742
0.0001699875916
8.972126502e-05
8.972555613e-05
4.736919057e-05
4.735535888e-05
2.5002436e-05
2.499376725e-05
0.0009406564451
0.0003500704567
0.0003500728744
0.0003343375885
0.0003343380588
0.0003210691338
0.0003210693289
0.0003150154843
0.000315015162
0.0003220425444
0.0003220386377
0.000169987127
0.000169988512
8.972765043e-05
8.972749619e-05
4.73587949e-05
4.736128957e-05
2.500394625e-05
2.499617325e-05
0.0003500732986
0.0003500768715
0.0003343387021
0.0003343392838
0.000321069481
0.0003210695802
0.0003150154635
0.0003150156392
0.0003220351619
0.0003220377041
0.0001699913181
0.0001699866302
8.972707466e-05
8.972796816e-05
4.736248187e-05
4.736235437e-05
2.499808775e-05
2.4999467e-05
0.0003343402937
0.000334341282
0.0003210695939
0.0003210697226
0.0003150159104
0.0003150157263
0.0003220388776
0.0003220391984
0.0001699825807
0.0001699862079
8.972994328e-05
8.972674419e-05
4.736208782e-05
4.736260975e-05
2.500012075e-05
2.50000435e-05
0.000321070019
0.00032107064
0.0003150153496
0.0003150147503
0.0003220396182
0.0003220417425
0.000169987249
0.0001699872909
8.972399791e-05
8.972657228e-05
4.736379268e-05
4.736190804e-05
2.49998925e-05
2.500018675e-05
0.0003150148222
0.0003150150088
0.0003220383599
0.0003220378391
0.0001699874994
0.0001699906749
8.97272732e-05
8.972729214e-05
4.736029536e-05
4.736185387e-05
2.500085375e-05
2.499980525e-05
0.0003220373732
0.0003220386161
0.0001699863533
0.0001699863631
8.972742054e-05
8.972968431e-05
4.736228014e-05
4.736229957e-05
2.4998913e-05
2.499979775e-05
0.0001699858496
0.0001699877876
8.972670514e-05
8.972678914e-05
4.736238701e-05
4.736375758e-05
2.5000046e-05
2.500006775e-05
8.972645096e-05
8.972783551e-05
4.736199817e-05
4.73620713e-05
2.5000126e-05
2.500090375e-05
4.736187465e-05
4.736270652e-05
2.499992425e-05
2.49999705e-05
2.499986375e-05
2.500033175e-05
8.165527396e-05
8.165510644e-05
7.509755278e-05
0.0002276991687
8.16554119e-05
7.509752023e-05
2.551909973e-05
2.551902503e-05
0.0002277004283
7.509756568e-05
8.165545367e-05
2.55190399e-05
2.551910291e-05
2.251551506e-05
2.251548492e-05
0.0002277017215
8.165589329e-05
2.551914732e-05
7.509779388e-05
2.551908224e-05
2.251554721e-05
2.251556882e-05
1.981647296e-05
1.981639683e-05
8.165609557e-05
0.0002277026028
8.165650533e-05
7.509809994e-05
2.551917433e-05
2.251564243e-05
2.55192431e-05
2.251560308e-05
1.981652555e-05
1.981656847e-05
1.799729547e-05
1.7997205e-05
7.509846145e-05
0.0002277026901
8.165683096e-05
8.165665064e-05
7.509878454e-05
2.551935988e-05
2.551930143e-05
2.251569784e-05
1.981665964e-05
2.251575803e-05
1.981660927e-05
1.799736089e-05
1.79974221e-05
1.776889983e-05
1.776888016e-05
2.551941715e-05
2.551945542e-05
8.165674875e-05
0.0002277020489
8.165664597e-05
7.509915587e-05
7.509904542e-05
2.551953838e-05
2.551951055e-05
2.251586508e-05
2.251581891e-05
1.981672834e-05
1.799751325e-05
1.981680747e-05
1.799745649e-05
1.776880719e-05
1.776902078e-05
1.464852788e-05
1.46486285e-05
2.251589381e-05
2.251591208e-05
7.509911001e-05
0.0002277011057
8.165612245e-05
8.165637384e-05
7.50988993e-05
2.55196539e-05
2.551966352e-05
2.551959722e-05
2.55196168e-05
2.251594717e-05
2.251592402e-05
1.981691785e-05
1.981687754e-05
1.799760522e-05
1.776882989e-05
1.799776622e-05
1.776912718e-05
1.464818662e-05
1.464858024e-05
1.207611238e-05
1.207627669e-05
1.981692044e-05
1.981690163e-05
2.551966598e-05
2.551961749e-05
8.165582851e-05
0.000227700281
8.165558611e-05
7.509829807e-05
7.509861265e-05
2.551952846e-05
2.551959713e-05
2.251607699e-05
2.25160543e-05
2.251597852e-05
2.251602072e-05
1.981687818e-05
1.981687938e-05
1.7997941e-05
1.799788888e-05
1.776919931e-05
1.46479139e-05
1.776954328e-05
1.464876413e-05
1.207564988e-05
1.207611944e-05
9.955431426e-06
9.955624773e-06
1.799793523e-05
1.799786867e-05
2.251607629e-05
2.251605515e-05
7.509799736e-05
0.0002276997791
8.165521363e-05
8.165538509e-05
7.509773201e-05
2.551934483e-05
2.551942003e-05
2.551950311e-05
2.551943062e-05
2.251598098e-05
2.251601864e-05
1.981706218e-05
1.981702028e-05
1.981691052e-05
1.981696406e-05
1.799777798e-05
1.799779305e-05
1.776991924e-05
1.776982408e-05
1.46485908e-05
1.207522154e-05
1.464903773e-05
1.207633535e-05
9.954925463e-06
9.955409824e-06
8.207159382e-06
8.207358959e-06
1.77698541e-05
1.776986526e-05
1.981707831e-05
1.981706121e-05
2.551933976e-05
2.551925498e-05
8.16551295e-05
0.000227699595
8.165503977e-05
7.50973714e-05
7.509752404e-05
2.551917366e-05
2.551925876e-05
2.251590056e-05
2.251591138e-05
2.251594802e-05
2.251592814e-05
1.981699168e-05
1.981702608e-05
1.79981197e-05
1.799804316e-05
1.799783158e-05
1.799794945e-05
1.776943461e-05
1.776959309e-05
1.464947079e-05
1.464940652e-05
1.207603243e-05
9.954430454e-06
1.207651091e-05
9.955630095e-06
8.206655584e-06
8.207119982e-06
6.765898738e-06
6.766091792e-06
1.464925762e-05
1.464936106e-05
1.799816724e-05
1.799814636e-05
2.251587653e-05
2.251585265e-05
7.509725178e-05
0.0002276996165
8.165503302e-05
8.165505205e-05
7.509716807e-05
2.551906646e-05
2.551915318e-05
2.551919618e-05
2.551911482e-05
2.251580073e-05
2.251582007e-05
1.981703573e-05
1.981701673e-05
1.981698236e-05
1.981699212e-05
1.799800731e-05
1.799806548e-05
1.777029753e-05
1.777017103e-05
1.776982245e-05
1.776993661e-05
1.464838912e-05
1.464879674e-05
1.207695057e-05
1.207690784e-05
9.955269562e-06
8.206148249e-06
9.955738782e-06
8.207329189e-06
6.765423314e-06
6.76584953e-06
5.577736329e-06
5.57791633e-06
1.207666608e-05
1.207681453e-05
1.777031706e-05
1.777044071e-05
1.981704125e-05
1.981702637e-05
2.551910481e-05
2.551899964e-05
8.165511312e-05
0.0002276996694
8.165512329e-05
7.509713834e-05
7.509712757e-05
2.551892858e-05
2.551903826e-05
2.251574448e-05
2.251575625e-05
2.251577804e-05
2.251577384e-05
1.981699102e-05
1.981700704e-05
1.799818477e-05
1.799813011e-05
1.799799811e-05
1.799807156e-05
1.776975341e-05
1.777015698e-05
1.464965755e-05
1.46495187e-05
1.464917361e-05
1.46491643e-05
1.20755941e-05
1.207611837e-05
9.956156246e-06
9.95612866e-06
8.206955066e-06
6.764935161e-06
8.207392374e-06
6.766039901e-06
5.577302654e-06
5.577682872e-06
4.598226719e-06
4.598389711e-06
9.955847589e-06
9.956012509e-06
1.464960194e-05
1.464994596e-05
1.799821371e-05
1.799819423e-05
2.25157059e-05
2.251566525e-05
7.509716044e-05
0.0002276996369
8.165517587e-05
8.165520293e-05
7.509719068e-05
2.5518859e-05
2.55189538e-05
2.551898281e-05
2.551888415e-05
2.251555772e-05
2.251560316e-05
1.981699644e-05
1.981700502e-05
1.981699033e-05
1.98169986e-05
1.799811819e-05
1.799814256e-05
1.777026e-05
1.777021659e-05
1.777002449e-05
1.777002931e-05
1.464860534e-05
1.464944278e-05
1.207701688e-05
1.207687971e-05
1.207655633e-05
1.207647787e-05
9.95472056e-06
9.955282049e-06
8.207773653e-06
8.207755913e-06
6.765678083e-06
5.57685063e-06
6.766072638e-06
5.577851224e-06
4.597839947e-06
4.598172202e-06
3.790728618e-06
3.790873664e-06
8.207468259e-06
8.207633042e-06
1.207692253e-05
1.207737043e-05
1.777026787e-05
1.777032206e-05
1.981696376e-05
1.981690142e-05
2.551892209e-05
2.551881845e-05
8.165522289e-05
0.0002276995007
8.165517149e-05
7.509720021e-05
7.50972023e-05
2.551877063e-05
2.551887075e-05
2.251543858e-05
2.25154603e-05
2.251550896e-05
2.251548975e-05
1.981673467e-05
1.981681682e-05
1.799820303e-05
1.799819859e-05
1.799812947e-05
1.799817778e-05
1.776985543e-05
1.777008336e-05
1.464955114e-05
1.464953269e-05
1.464930661e-05
1.464917843e-05
1.207573781e-05
1.207677132e-05
9.956149803e-06
9.956021179e-06
9.955728906e-06
9.955615437e-06
8.206372712e-06
8.206923794e-06
6.766411621e-06
6.766400297e-06
5.57751585e-06
4.597431744e-06
5.577863823e-06
4.598318372e-06
3.790389286e-06
3.790675366e-06
3.125035376e-06
3.125162876e-06
6.76612491e-06
6.766280191e-06
9.956038422e-06
9.9565196e-06
1.46495375e-05
1.464973322e-05
1.799818535e-05
1.799810964e-05
2.251539115e-05
2.25153441e-05
7.509715632e-05
0.0002276991622
8.165521378e-05
8.165523669e-05
7.509712517e-05
2.551869886e-05
2.551878902e-05
2.551882629e-05
2.551873548e-05
2.251522985e-05
2.251527687e-05
1.981659726e-05
1.981663354e-05
1.981667981e-05
1.981665324e-05
1.799780921e-05
1.799795384e-05
1.777021193e-05
1.777016444e-05
1.77701109e-05
1.777011966e-05
1.464881044e-05
1.464928915e-05
1.207687467e-05
1.207687132e-05
1.207663979e-05
1.207644352e-05
9.954813334e-06
9.955899247e-06
8.20772517e-06
8.207608308e-06
8.207350124e-06
8.207223917e-06
6.765108103e-06
6.76562213e-06
5.578159366e-06
5.578152977e-06
4.598015726e-06
3.790027247e-06
4.598317816e-06
3.790800436e-06
3.124741126e-06
3.124984876e-06
5.577899092e-06
5.578040227e-06
8.207610256e-06
8.20808183e-06
1.207684974e-05
1.207711337e-05
1.777016012e-05
1.777020037e-05
1.981653274e-05
1.981644105e-05
2.551873926e-05
2.551864513e-05
8.165528343e-05
0.0002276984632
8.165522047e-05
7.509723658e-05
7.509714395e-05
2.551860342e-05
2.551868364e-05
2.251508912e-05
2.251511658e-05
2.251518004e-05
2.251515304e-05
1.981624657e-05
1.981633969e-05
1.799775154e-05
1.799779087e-05
1.799774195e-05
1.799776499e-05
1.776933768e-05
1.776992892e-05
1.464953688e-05
1.464942799e-05
1.464942562e-05
1.464935443e-05
1.207598684e-05
1.207657821e-05
9.955992816e-06
9.95599784e-06
9.955777279e-06
9.95555315e-06
8.206430324e-06
8.207484548e-06
6.76634095e-06
6.766237571e-06
6.766012948e-06
6.765886576e-06
5.576983429e-06
5.577447725e-06
4.598572147e-06
4.598568943e-06
3.7905324e-06
3.124424251e-06
3.790791717e-06
3.125090626e-06
4.598341188e-06
4.598465961e-06
6.766230137e-06
6.7666698e-06
9.955961773e-06
9.956249091e-06
1.464944104e-05
1.464968878e-05
1.799768105e-05
1.799753798e-05
2.251504185e-05
2.251500157e-05
7.509732391e-05
0.0002276974493
8.16549909e-05
8.165517221e-05
7.509736867e-05
2.551868788e-05
2.551872052e-05
2.55186721e-05
2.55186224e-05
2.251492995e-05
2.251495136e-05
1.981606056e-05
1.981610292e-05
1.981618205e-05
1.981613694e-05
1.799722387e-05
1.799736496e-05
1.776985109e-05
1.776974686e-05
1.77694675e-05
1.776971499e-05
1.464820046e-05
1.464934851e-05
1.207688044e-05
1.207674284e-05
1.207676902e-05
1.207665632e-05
9.955070989e-06
9.95569281e-06
8.20756596e-06
8.207575866e-06
8.207373846e-06
8.207147209e-06
6.765141108e-06
6.766118543e-06
5.578079357e-06
5.577989445e-06
5.577796349e-06
5.577677103e-06
4.597533179e-06
4.597943646e-06
3.791008375e-06
3.791007131e-06
3.124856501e-06
3.125077126e-06
3.790806581e-06
3.790915176e-06
5.577976758e-06
5.578373822e-06
8.207533034e-06
8.207817414e-06
1.207676632e-05
1.207711651e-05
1.776963763e-05
1.776959458e-05
1.981600626e-05
1.981593539e-05
2.551878384e-05
2.551873972e-05
8.165479237e-05
0.0002276965066
8.165455551e-05
7.509723596e-05
7.509734201e-05
2.551876737e-05
2.551881935e-05
2.251503412e-05
2.251498566e-05
2.251492228e-05
2.251495192e-05
1.981581441e-05
1.981586436e-05
1.799703949e-05
1.79970852e-05
1.799713408e-05
1.799711964e-05
1.776881504e-05
1.776924301e-05
1.464948153e-05
1.464916243e-05
1.46486398e-05
1.464916492e-05
1.207536291e-05
1.207675786e-05
9.956009248e-06
9.955863151e-06
9.955903546e-06
9.955773679e-06
8.206676392e-06
8.207280357e-06
6.766187284e-06
6.766199671e-06
6.766019717e-06
6.76580405e-06
5.576999164e-06
5.577879099e-06
4.598490285e-06
4.59841322e-06
4.598248792e-06
4.598140094e-06
3.790103933e-06
3.790461371e-06
3.125260126e-06
3.125260376e-06
3.125086126e-06
3.125179376e-06
4.598398279e-06
4.598748624e-06
6.76615544e-06
6.766421478e-06
9.955891799e-06
9.956280509e-06
1.464908662e-05
1.464926186e-05
1.799697434e-05
1.799686941e-05
2.251506022e-05
2.251508472e-05
7.509704574e-05
0.0002276961826
8.165422012e-05
8.165433673e-05
7.509681169e-05
2.551880594e-05
2.551886462e-05
2.551884287e-05
2.551879458e-05
2.251510416e-05
2.25150866e-05
1.981595598e-05
1.981590162e-05
1.98158082e-05
1.981584312e-05
1.799662158e-05
1.799672608e-05
1.776892793e-05
1.776899589e-05
1.776899657e-05
1.776890429e-05
1.46479913e-05
1.464875207e-05
1.207700783e-05
1.207658491e-05
1.207595268e-05
1.20766044e-05
9.954477928e-06
9.955932343e-06
8.207587795e-06
8.207444692e-06
8.207490241e-06
8.207358612e-06
6.765365473e-06
6.765925417e-06
5.577935757e-06
5.577948768e-06
5.577792052e-06
5.577594281e-06
4.597537225e-06
4.598313092e-06
3.790929297e-06
3.790863946e-06
3.790724828e-06
3.790628015e-06
3.124481626e-06
3.124789376e-06
3.790848234e-06
3.791152686e-06
5.577906315e-06
5.578146779e-06
8.207475321e-06
8.207864428e-06
1.207653367e-05
1.207682382e-05
1.776874893e-05
1.7768771e-05
1.981598986e-05
1.981599511e-05
2.551885439e-05
2.551877741e-05
8.16541503e-05
0.0002276968918
8.16542659e-05
7.509652367e-05
7.509661871e-05
2.551872796e-05
2.551880294e-05
2.251523788e-05
2.251519776e-05
2.251511986e-05
2.251516211e-05
1.981597408e-05
1.981598032e-05
1.799685482e-05
1.799677984e-05
1.799659811e-05
1.799668317e-05
1.776793327e-05
1.776844168e-05
1.46486448e-05
1.464870313e-05
1.464861138e-05
1.464840392e-05
1.207535201e-05
1.207625509e-05
9.956238568e-06
9.955780041e-06
9.955119915e-06
9.955807307e-06
8.206137053e-06
8.207542033e-06
6.766211324e-06
6.766077377e-06
6.766122837e-06
6.765998407e-06
5.577197843e-06
5.577701685e-06
4.598359071e-06
4.598372107e-06
4.598237296e-06
4.598060551e-06
3.790100369e-06
3.790774606e-06
3.125186626e-06
3.125131501e-06
3.125014501e-06
3.124929876e-06
3.125116001e-06
3.125377626e-06
4.598332526e-06
4.598545241e-06