/*--------------------------------*- C++ -*----------------------------------*\
  =========                 |
  \\      /  F ield         | OpenFOAM: The Open Source CFD Toolbox
   \\    /   O peration     | Website:  https://openfoam.org
    \\  /    A nd           | Version:  8
     \\/     M anipulation  |
\*---------------------------------------------------------------------------*/







FoamFile
{
    version     2.0;
    format      ascii;
    class       volScalarField;
    location    "0";
    object      pDDES;
}
// * * * * * * * * * * * * * * * * * * * * * * * * * * * * * * * * * * * * * //

dimensions      [0 2 -2 0 0 0 0];


internalField   nonuniform List<scalar> 
8940
(
2.893645433e-05
2.350503564e-05
2.946865425e-05
2.328131086e-05
2.578926069e-05
3.027023922e-05
3.237079e-05
2.287261486e-05
1.57061877e-05
2.731984932e-05
3.325571743e-05
3.324916543e-05
3.542834747e-05
2.320425119e-05
1.858430369e-05
1.011941367e-05
2.82946603e-05
3.518816811e-05
3.138635657e-05
3.49237489e-05
3.753109922e-05
2.389754627e-05
1.863770012e-05
1.208242429e-05
4.626914688e-06
2.937630234e-05
3.868141721e-05
3.428689888e-05
3.227764682e-05
3.68098008e-05
4.025536327e-05
2.67141495e-05
2.10269136e-05
1.41218643e-05
6.704488442e-06
2.094868432e-05
-5.649129662e-07
3.227249908e-05
3.981525879e-05
3.630484571e-05
3.410955833e-05
3.94083545e-05
4.102219464e-05
2.782565934e-05
2.113535083e-05
8.965736924e-06
1.739697473e-05
1.524171012e-06
2.12651812e-05
-7.715058928e-06
3.387199467e-05
3.042400385e-05
4.058114064e-05
3.88779772e-05
3.73862822e-05
4.013280341e-05
4.148918742e-05
2.416189818e-05
2.859653978e-05
3.85562771e-06
1.140252243e-05
1.746305861e-05
2.210006096e-05
-1.564648119e-05
-2.85352462e-06
3.708850272e-05
3.32687232e-05
3.134660437e-05
4.105106564e-05
3.959539754e-05
3.844120511e-05
4.056822581e-05
4.174006608e-05
2.617680002e-05
3.134225335e-05
6.422700608e-06
2.032983684e-05
2.03823638e-05
1.399662506e-05
2.283734648e-05
-1.337408048e-05
-1.935567707e-05
4.538160283e-06
-1.352304935e-08
3.812139039e-05
3.670178921e-05
3.315673166e-05
4.131026435e-05
4.002832429e-05
3.91437643e-05
4.079435894e-05
4.185573925e-05
2.714255243e-05
3.304925485e-05
2.998398122e-05
9.265066183e-06
2.049896284e-05
2.128997767e-05
1.792304465e-05
2.606032285e-05
-8.097036698e-06
-1.715554936e-05
-2.555480933e-05
7.737844498e-06
3.200194897e-06
3.879850192e-05
3.774627476e-05
3.643639502e-05
4.143351907e-05
4.026077295e-05
3.956931323e-05
4.089610229e-05
4.189761239e-05
2.846447023e-05
3.629681305e-05
3.271699825e-05
3.107361044e-05
1.23508471e-05
2.382193998e-05
2.254092215e-05
1.802152292e-05
2.750623571e-05
-1.755098992e-06
2.37137624e-06
-1.205351145e-05
-2.350218892e-05
1.118612363e-05
6.695172942e-06
3.919656228e-05
3.843325248e-05
3.747580195e-05
4.148628796e-05
4.036798055e-05
3.979518806e-05
4.093753523e-05
4.191678818e-05
3.107087832e-05
3.732555706e-05
3.608456245e-05
3.277638825e-05
1.556660391e-05
2.152019988e-05
2.153018067e-05
2.577306077e-05
2.36101514e-05
2.752916953e-05
2.975421557e-05
2.021125511e-06
-5.659115686e-06
6.190648492e-06
-1.876398892e-05
2.092229261e-05
2.090073394e-05
1.468282426e-05
1.048524064e-05
3.939945964e-05
3.884383841e-05
3.81646023e-05
4.149210508e-05
4.041080683e-05
3.989777906e-05
4.095911936e-05
3.271491369e-05
3.800271224e-05
3.71293645e-05
3.593292058e-05
2.166393642e-05
2.308743024e-05
2.660296741e-05
2.48212873e-05
3.084525088e-05
3.084329364e-05
3.238171848e-05
6.118513284e-06
2.106859711e-06
-1.756863412e-06
-1.278824493e-05
1.025157508e-05
2.107393266e-05
2.234922431e-05
1.962109673e-05
1.440562482e-05
3.948565063e-05
3.90591631e-05
3.85782696e-05
4.043008084e-05
3.99396813e-05
3.582861973e-05
3.840620047e-05
3.783224383e-05
3.695836858e-05
2.530048368e-05
2.473608038e-05
3.040965203e-05
3.040851334e-05
2.73391197e-05
2.953725379e-05
3.246137931e-05
3.248842404e-05
3.561750782e-05
1.049893308e-05
6.506588761e-06
2.556422032e-06
-5.443356258e-06
1.44813057e-05
2.43632021e-05
2.410251909e-05
1.975461601e-05
1.843838618e-05
2.358457459e-05
2.359307109e-05
3.951636972e-05
3.915532579e-05
3.879640281e-05
3.995378938e-05
3.681872113e-05
3.861615915e-05
3.826728062e-05
3.764986832e-05
2.76966839e-05
2.669419337e-05
3.237369674e-05
3.232087693e-05
3.076678331e-05
3.076764915e-05
3.219600694e-05
3.552138151e-05
3.421334623e-05
3.660412767e-05
1.869800326e-05
1.115356372e-05
7.16199429e-06
-1.253875325e-06
3.216529421e-06
2.395853517e-05
2.399303958e-05
1.880629861e-05
2.688739187e-05
2.811421109e-05
2.726847015e-05
2.509606747e-05
3.953393389e-05
3.919186565e-05
3.889322397e-05
3.747050505e-05
3.870836372e-05
3.851007205e-05
3.807738176e-05
3.039915828e-05
3.039786861e-05
2.828381548e-05
3.013202513e-05
3.550045585e-05
3.414189996e-05
3.252409078e-05
3.24232351e-05
3.556587399e-05
3.648883649e-05
3.649447899e-05
3.725306306e-05
2.071574272e-05
2.470699474e-05
2.468887578e-05
2.06021341e-05
1.585470818e-05
1.574976886e-05
7.735176951e-06
1.17736472e-05
2.411150672e-05
2.641376159e-05
2.815417429e-05
2.988746201e-05
2.71826957e-05
2.97689694e-05
3.920536619e-05
3.8927883e-05
3.785899753e-05
3.874011236e-05
3.863007805e-05
3.831382855e-05
3.246931738e-05
3.243985338e-05
3.168086187e-05
3.167784598e-05
3.26516456e-05
3.645961988e-05
3.65242413e-05
3.576723611e-05
3.565557563e-05
3.661083247e-05
3.712528633e-05
3.710714736e-05
3.764207213e-05
2.539821253e-05
2.844698429e-05
2.803061943e-05
2.382473212e-05
2.228379344e-05
1.822104605e-05
2.232874976e-05
1.330573832e-05
1.342242012e-05
1.809418245e-05
1.35340033e-05
3.001627374e-05
3.112595732e-05
3.197792466e-05
3.198053309e-05
3.213242962e-05
3.213117452e-05
2.980587851e-05
3.206347901e-05
3.170108539e-05
3.893768007e-05
3.806330642e-05
3.876428673e-05
3.868495696e-05
3.843078593e-05
3.581038618e-05
3.575246592e-05
3.349944745e-05
3.315046706e-05
3.59313417e-05
3.708149961e-05
3.717143773e-05
3.675509288e-05
3.6684105e-05
3.730611934e-05
3.750582619e-05
3.746370203e-05
3.784862201e-05
2.989207314e-05
3.082124022e-05
3.126958472e-05
2.884557762e-05
2.627953654e-05
2.476789996e-05
2.612395292e-05
1.649557089e-05
1.85773315e-05
2.33299761e-05
2.14319316e-05
3.205415123e-05
3.246846973e-05
3.377534449e-05
3.388001642e-05
3.416078835e-05
3.398802801e-05
3.363466021e-05
3.363130963e-05
3.446784103e-05
3.373643995e-05
3.373586878e-05
3.815709351e-05
3.869256761e-05
3.848535198e-05
3.68072433e-05
3.673834726e-05
3.662492236e-05
3.624431702e-05
3.693594044e-05
3.744658898e-05
3.755485523e-05
3.739375097e-05
3.736629151e-05
3.773365461e-05
3.770589683e-05
3.764411667e-05
3.794418808e-05
3.228245259e-05
3.294178532e-05
3.398492481e-05
3.092955376e-05
2.916013182e-05
2.816172127e-05
2.982470869e-05
2.032279372e-05
2.220103124e-05
2.686518565e-05
2.504416079e-05
3.386917888e-05
3.387369361e-05
3.458044375e-05
3.45869521e-05
3.681197632e-05
3.696251224e-05
3.728455704e-05
3.706058123e-05
3.536292206e-05
3.502490654e-05
3.752333578e-05
3.561328776e-05
3.554185605e-05
3.819729318e-05
3.850469511e-05
3.7447262e-05
3.737191582e-05
3.755390571e-05
3.720970562e-05
3.758387902e-05
3.763426139e-05
3.775615551e-05
3.776973244e-05
3.778249084e-05
3.797198224e-05
3.779578037e-05
3.771996489e-05
3.798180478e-05
3.500651655e-05
3.500855746e-05
3.526549335e-05
3.526448927e-05
3.669242142e-05
3.366216697e-05
3.185660898e-05
3.057335562e-05
3.290225141e-05
2.214002416e-05
2.392339593e-05
2.876126746e-05
2.633938311e-05
3.569045657e-05
3.583738726e-05
3.621823271e-05
3.652201485e-05
3.774624201e-05
3.78926743e-05
3.820822167e-05
3.79957819e-05
3.831222057e-05
3.789121183e-05
3.844436287e-05
3.860610013e-05
3.846903564e-05
3.821944119e-05
3.781817577e-05
3.774209836e-05
3.815785021e-05
3.783484499e-05
3.796289457e-05
3.771534466e-05
3.78467339e-05
3.79659723e-05
3.801109779e-05
3.809152986e-05
3.782947169e-05
3.77457618e-05
3.799631668e-05
3.864299651e-05
3.888874562e-05
3.694894258e-05
3.686279888e-05
3.997998283e-05
3.460402149e-05
3.881771772e-05
3.46031884e-05
3.327432933e-05
3.326925435e-05
3.84205232e-05
2.440343815e-05
2.671707443e-05
3.11703734e-05
2.903221866e-05
3.871199806e-05
3.893571557e-05
3.917666618e-05
3.95687639e-05
3.836236283e-05
3.849803034e-05
3.879798169e-05
3.859609569e-05
3.918352013e-05
3.877938798e-05
3.903440302e-05
3.948450103e-05
3.93461778e-05
3.800564082e-05
3.793332144e-05
3.851927249e-05
3.820270649e-05
3.815719538e-05
3.774285142e-05
3.788056347e-05
3.805651431e-05
3.812382784e-05
3.81490463e-05
3.784269938e-05
3.775658843e-05
4.006422023e-05
4.036400424e-05
3.98997945e-05
3.975159052e-05
4.09070708e-05
3.866189945e-05
4.037690087e-05
3.867127089e-05
3.792506686e-05
3.739343811e-05
4.017311221e-05
2.756356662e-05
3.270200614e-05
3.638222552e-05
3.482638203e-05
3.960956747e-05
3.983601709e-05
4.008097312e-05
4.047470793e-05
3.873790411e-05
3.885794649e-05
3.913800174e-05
3.894828842e-05
3.975040454e-05
3.93516857e-05
3.93781047e-05
4.00476747e-05
3.991472113e-05
3.808504334e-05
3.80188867e-05
3.871441731e-05
3.839471174e-05
3.823975567e-05
3.77548422e-05
3.790806659e-05
3.809709597e-05
3.817795732e-05
3.815190576e-05
4.105213884e-05
4.139345401e-05
4.077257836e-05
4.06420113e-05
4.149801316e-05
4.025135058e-05
4.14463866e-05
4.02750411e-05
3.973962157e-05
3.920396921e-05
4.140694728e-05
3.250982627e-05
3.493932672e-05
3.833270239e-05
3.699861554e-05
4.018197797e-05
4.040852582e-05
4.066066322e-05
4.106629785e-05
3.894752808e-05
3.905154881e-05
3.931119863e-05
3.913298497e-05
4.00917088e-05
3.968955207e-05
3.955441207e-05
4.037801409e-05
4.025561793e-05
3.811148054e-05
3.805377492e-05
3.880864824e-05
3.847909102e-05
3.826574539e-05
3.811704664e-05
3.820126585e-05
4.16905641e-05
4.206565427e-05
4.133330367e-05
4.121979873e-05
4.184362479e-05
4.13593516e-05
4.213468492e-05
4.139365774e-05
4.105231346e-05
4.051865471e-05
4.222958887e-05
3.416095569e-05
3.661637675e-05
3.975049913e-05
3.86280517e-05
4.051508586e-05
4.073950549e-05
4.100337537e-05
4.14250826e-05
3.905536141e-05
3.914531408e-05
3.93867449e-05
3.92186339e-05
4.027956311e-05
3.986791489e-05
3.963073686e-05
4.055238969e-05
4.044223169e-05
3.812258365e-05
3.80709389e-05
3.885227488e-05
3.850788198e-05
3.827181717e-05
4.207155143e-05
4.247340257e-05
4.166446888e-05
4.156674186e-05
4.202502896e-05
4.207600068e-05
4.254454325e-05
4.212157e-05
4.193983114e-05
4.140607052e-05
4.273858212e-05
3.532982373e-05
3.781051055e-05
4.072732918e-05
3.979787289e-05
4.068806084e-05
4.090941002e-05
4.118711513e-05
4.162635742e-05
3.911175372e-05
3.918891889e-05
3.941421892e-05
3.925506098e-05
4.037534381e-05
3.994955478e-05
3.965631186e-05
4.063510278e-05
4.053691009e-05
3.886673585e-05
3.852433656e-05
4.227837053e-05
4.270224963e-05
4.184113277e-05
4.175735376e-05
4.210841871e-05
4.250151687e-05
4.276834079e-05
4.255720705e-05
4.249667109e-05
4.195931615e-05
4.302855086e-05
3.609962732e-05
3.860275319e-05
4.135398922e-05
4.058861668e-05
4.076613186e-05
4.098367936e-05
4.127481952e-05
4.17322226e-05
3.91254689e-05
3.921169264e-05
3.942759213e-05
3.927298894e-05
4.042601358e-05
3.997995736e-05
3.966134682e-05
4.067374539e-05
4.058573541e-05
4.237897883e-05
4.28239473e-05
4.192586857e-05
4.185418584e-05
4.213963985e-05
4.27300547e-05
4.287877164e-05
4.278992492e-05
4.28125677e-05
4.227135651e-05
4.318117863e-05
3.656323679e-05
3.909050065e-05
4.172296394e-05
4.108635767e-05
4.079654173e-05
4.101029481e-05
4.131193782e-05
4.179141251e-05
4.042255023e-05
4.000997433e-05
4.069048373e-05
4.061517393e-05
4.242332216e-05
4.288755372e-05
4.196420196e-05
4.1903073e-05
4.214687215e-05
4.284098031e-05
4.293403981e-05
4.290507059e-05
4.298347267e-05
4.242921568e-05
4.32710076e-05
3.682712486e-05
3.937723523e-05
4.192002234e-05
4.138941586e-05
4.081529187e-05
4.101458035e-05
4.135406198e-05
4.178338713e-05
4.246642857e-05
4.28792373e-05
4.198401075e-05
4.193369386e-05
4.288371565e-05
4.296377665e-05
4.295446706e-05
4.308131247e-05
4.250825077e-05
4.327473289e-05
3.698522778e-05
3.956356159e-05
4.201882621e-05
4.158927914e-05
4.28963067e-05
4.300496221e-05
4.311886732e-05
4.254140367e-05
3.707742871e-05
3.968225792e-05
4.21230543e-05
4.157034346e-05
9.199882334e-05
9.196169412e-05
9.272868192e-05
9.186786338e-05
9.269119619e-05
9.339679673e-05
9.166170639e-05
9.259169747e-05
9.335810319e-05
9.398909606e-05
9.123933705e-05
9.237321501e-05
9.325621068e-05
9.394576773e-05
9.455671534e-05
9.048992069e-05
9.193669393e-05
9.30334063e-05
9.384273289e-05
9.450545622e-05
9.506230708e-05
8.931780758e-05
9.117096488e-05
9.258479258e-05
9.362548735e-05
9.439307178e-05
9.501417662e-05
9.544943896e-05
8.544630691e-05
8.998459816e-05
9.180157213e-05
9.318355296e-05
9.416244575e-05
9.489147487e-05
9.539524035e-05
9.572843555e-05
8.284040814e-05
8.608435019e-05
9.057951684e-05
9.240025975e-05
9.370889165e-05
9.465052426e-05
9.527539078e-05
9.567268717e-05
9.588172543e-05
8.057186642e-05
8.335363236e-05
8.653708937e-05
9.117859736e-05
9.29044545e-05
9.417381079e-05
9.503294132e-05
9.554502321e-05
9.5820571e-05
9.586371016e-05
7.61000847e-05
8.058024832e-05
8.353710291e-05
8.715526928e-05
9.166020027e-05
9.333908383e-05
9.455069812e-05
9.528886585e-05
9.568434325e-05
9.580759797e-05
9.566484368e-05
7.459179324e-05
7.922131044e-05
8.441301179e-05
8.758279728e-05
9.205263632e-05
9.370938642e-05
9.478589345e-05
9.540877363e-05
9.566637891e-05
9.560675244e-05
9.525973292e-05
7.347662904e-05
6.796556409e-05
8.187146159e-05
8.473708294e-05
8.781515498e-05
9.241626685e-05
9.391979256e-05
9.486915951e-05
9.538189624e-05
9.547027003e-05
9.520216554e-05
9.46285727e-05
7.045532402e-05
7.743533206e-05
6.722452235e-05
6.326476432e-05
8.187825006e-05
8.470185276e-05
8.819359209e-05
9.259858052e-05
9.39392703e-05
9.481274901e-05
9.518145816e-05
9.505327034e-05
9.456825501e-05
9.379317635e-05
6.548172678e-05
7.628240564e-05
6.595068407e-05
6.01134816e-05
5.057502494e-05
8.03010189e-05
8.529262414e-05
8.827187412e-05
9.251735901e-05
9.383010911e-05
9.461696027e-05
9.476597188e-05
9.442539886e-05
9.372437489e-05
9.287991998e-05
7.42752527e-05
6.522758486e-05
6.529361417e-05
6.002697046e-05
4.727033956e-05
4.247589823e-05
8.251803956e-05
8.529035404e-05
8.784608508e-05
9.232552111e-05
9.363430581e-05
9.420326387e-05
9.413608495e-05
9.358930402e-05
9.281524399e-05
9.182812937e-05
6.927488721e-05
7.615318464e-05
5.114214582e-05
5.513392171e-05
6.045363625e-05
4.342146349e-05
3.940912575e-05
2.756764843e-05
8.251782128e-05
8.446229185e-05
8.737602911e-05
9.213168232e-05
9.323253471e-05
9.356979717e-05
9.33141564e-05
9.267423593e-05
9.175752348e-05
9.04495173e-05
7.611200999e-05
6.789062172e-05
4.629923933e-05
6.03201479e-05
3.596191891e-05
3.906533675e-05
2.26231532e-05
1.465726382e-05
8.050908218e-05
8.368382987e-05
8.721640916e-05
9.174254228e-05
9.257528291e-05
9.275143384e-05
9.238734492e-05
9.159388719e-05
9.036630217e-05
8.866854478e-05
7.458395703e-05
6.567129458e-05
4.076617188e-05
5.353632878e-05
3.215900506e-05
2.390822374e-05
1.128438635e-05
1.418185639e-05
3.973806088e-06
7.862633356e-05
8.384334797e-05
8.686865476e-05
9.105074423e-05
9.176289313e-05
9.181479982e-05
9.127415979e-05
9.017865523e-05
8.856541535e-05
8.646504284e-05
6.991375994e-05
6.324157584e-05
3.467363058e-05
4.756069393e-05
1.458965471e-05
1.955368361e-06
7.666764759e-06
7.959848517e-06
-8.756963439e-07
8.04632291e-05
8.354545571e-05
8.60314758e-05
9.023898747e-05
9.081409371e-05
9.065004997e-05
8.983316366e-05
8.836419147e-05
8.634223923e-05
8.367454575e-05
6.348830357e-05
7.365350757e-05
2.812615821e-05
4.0557381e-05
6.322754052e-05
5.602154488e-05
5.223363132e-06
2.132136251e-05
-2.274674216e-06
3.367768386e-06
4.696413725e-06
3.393601219e-06
-8.744817023e-06
8.046052244e-05
8.24269664e-05
8.525045996e-05
8.928203897e-05
8.958512626e-05
8.91808595e-05
8.801650256e-05
8.611052908e-05
8.35117462e-05
8.007587894e-05
7.359265874e-05
3.286986248e-05
4.619157335e-05
5.578503624e-05
6.63900355e-05
6.347490125e-05
-3.417069138e-06
8.140408681e-06
2.479121758e-05
-3.730383241e-06
-9.246119589e-06
4.398780789e-07
-3.938661166e-07
-3.920395557e-06
-1.533545037e-05
7.765849296e-05
8.178318967e-05
8.426020941e-05
8.797161718e-05
8.808293933e-05
8.736454765e-05
8.572774823e-05
8.323065413e-05
7.990186714e-05
7.534687757e-05
3.749287862e-05
5.413877443e-05
5.966669778e-05
7.083800301e-05
6.817062967e-05
-3.869286957e-06
-1.179193987e-05
9.0995336e-06
1.835929652e-05
2.799228969e-05
-5.373159183e-06
-9.880423931e-06
-1.529002111e-05
-4.293348866e-06
-5.514111763e-06
-1.043890188e-05
-2.099782614e-05
7.800820458e-05
8.091080963e-05
8.268922102e-05
8.64362446e-05
8.626899216e-05
8.50317665e-05
8.281447663e-05
7.961583469e-05
7.526293484e-05
7.021517376e-05
5.390542356e-05
4.328435534e-05
5.430504461e-05
6.271854363e-05
7.799311425e-05
7.421048213e-05
-6.499759365e-06
-1.500283724e-05
-1.599286043e-05
8.493493624e-06
1.932298801e-05
3.038755858e-05
4.289031494e-05
-7.269017715e-06
-1.073613021e-05
-1.543592953e-05
-2.064990258e-05
-7.823783562e-06
-1.047902788e-05
-1.306293507e-05
-2.597972525e-05
7.890633424e-05
8.113536751e-05
8.463195991e-05
8.388471906e-05
8.209047519e-05
7.92312494e-05
7.507943519e-05
7.004643703e-05
6.569739344e-05
5.475864964e-05
4.900093336e-05
5.883151243e-05
6.555716391e-05
7.321925659e-05
-4.270429145e-06
-2.060741645e-05
-1.301402153e-05
-1.971204983e-05
-1.817821794e-05
6.488859526e-06
3.452249075e-05
3.496233694e-05
1.872547e-05
4.310896838e-05
-9.497155588e-06
-1.178973889e-05
-1.57980212e-05
-2.04923308e-05
-2.548456541e-05
-9.831787793e-06
-1.261694251e-05
-1.599375537e-05
-3.054647095e-05
7.745138282e-05
7.937473129e-05
8.218533912e-05
8.091675409e-05
7.85618904e-05
7.483803347e-05
7.00319797e-05
6.565568765e-05
6.078419392e-05
5.642490942e-05
5.079039329e-05
6.87001957e-05
7.319755969e-05
-9.253682038e-06
-2.562784903e-05
-2.912743548e-05
-1.825577419e-05
-2.188817598e-05
-2.147421583e-05
2.206603767e-06
1.71258398e-05
1.78756236e-05
3.505522909e-05
3.02854969e-05
4.291984806e-05
-1.212674397e-05
-1.315974168e-05
-1.628095197e-05
-2.049784962e-05
-2.513969957e-05
-2.998968193e-05
-1.324868208e-05
-1.509849972e-05
-1.935285763e-05
7.597065269e-05
7.674403605e-05
7.919924974e-05
7.746106712e-05
7.433322025e-05
6.995337753e-05
6.552553532e-05
6.063631736e-05
5.448394586e-05
6.509266677e-05
6.504324119e-05
5.112542567e-05
7.307702617e-05
-5.668900485e-06
-1.687547956e-05
-4.72661759e-06
-3.378438123e-05
-2.728494474e-05
-3.49369875e-05
-3.110598846e-05
-2.529509038e-05
-2.563642192e-05
-2.292610225e-05
1.771712596e-05
8.587640878e-06
3.747439041e-05
2.743490404e-05
4.462245124e-05
-1.466994217e-05
-1.492931096e-05
-1.700903704e-05
-2.059276267e-05
-2.490303814e-05
-2.958110235e-05
-1.524905565e-05
-1.805155989e-05
-2.090303133e-05
7.383215416e-05
7.583754632e-05
7.340411685e-05
6.96296629e-05
6.532422412e-05
6.038485299e-05
5.428388249e-05
4.633494973e-05
7.012716378e-05
5.897842493e-05
6.772702909e-05
5.239853635e-05
-5.098194379e-06
-1.764489207e-05
-2.80900822e-05
-4.227937097e-05
-3.445803668e-05
-2.972614129e-05
-4.099366197e-05
-3.850611029e-05
-3.424771421e-05
-3.392119834e-05
-2.674838288e-05
-2.228739868e-05
1.679663364e-05
3.903223387e-06
3.655351247e-05
2.617994505e-05
5.227768997e-05
-1.664856063e-05
-1.615910696e-05
-1.80189636e-05
-2.084765219e-05
-2.472716369e-05
-2.917496022e-05
-1.77193906e-05
-1.936446643e-05
7.076969632e-05
7.19549862e-05
6.889364158e-05
6.488153304e-05
6.005428804e-05
5.397932546e-05
4.613784768e-05
3.560440382e-05
6.381197454e-05
6.043026224e-05
-1.143736699e-05
-2.511705861e-05
-2.858540938e-05
-4.737969357e-05
-4.163983613e-05
-4.660318154e-05
-3.419628047e-05
-2.950019916e-05
-4.736443225e-05
-4.580572204e-05
-5.373059321e-05
-4.080617873e-05
-2.668793059e-05
-2.003747431e-05
2.400816084e-05
-2.100864094e-06
7.239917068e-06
4.33193527e-05
3.488471339e-05
2.419546763e-05
3.269007721e-05
5.501366104e-05
-1.901013093e-05
-1.766507557e-05
-1.79075505e-05
-2.124979073e-05
-2.4621173e-05
-2.877988663e-05
-1.874840746e-05
6.719219527e-05
6.763336569e-05
6.404294982e-05
5.947328464e-05
5.36325897e-05
4.584060662e-05
3.529751848e-05
1.96296387e-05
6.315358041e-05
-1.158451232e-05
-1.953139508e-05
-3.36705416e-05
-3.103572089e-05
-3.627748083e-05
-5.645947749e-05
-4.838766836e-05
-3.985176591e-05
-5.440599853e-05
-3.436165935e-05
-5.831777526e-05
-4.623006316e-05
-5.619766671e-05
-5.417750435e-05
-5.419416266e-05
-4.809398524e-05
-3.268588625e-05
-1.978658838e-05
2.302667963e-05
3.833221399e-06
1.203590546e-05
4.888877447e-05
4.442886348e-05
3.193853991e-05
3.771828415e-05
5.79949301e-05
-2.164102261e-05
-1.958480243e-05
-1.879525735e-05
-1.861115743e-05
-2.455194226e-05
-2.837779539e-05
6.270141603e-05
5.85037269e-05
5.306834646e-05
4.559215813e-05
3.516334255e-05
2.032974407e-05
1.558846861e-06
-8.103262189e-06
-1.722299203e-05
-4.057132173e-05
-4.322290624e-05
-3.029435902e-05
-4.559443914e-05
-6.027333075e-05
-4.678706318e-05
-5.361302465e-05
-3.881106386e-05
-5.809836148e-05
-6.211949949e-05
-6.058116196e-05
-6.270949234e-05
-5.488163151e-05
-6.398670666e-05
-3.873053356e-05
-2.106028478e-05
-1.904460805e-05
2.357748235e-05
2.471800144e-06
1.295685888e-05
5.240611063e-05
4.673317744e-05
3.296899013e-05
4.031229037e-05
-2.444238635e-05
-2.180975389e-05
-1.995100502e-05
-2.791089173e-05
5.507674723e-05
5.216281716e-05
4.521756637e-05
3.527117588e-05
2.083192703e-05
1.434000751e-06
-9.803709872e-06
-8.390582479e-06
-1.974008046e-05
-4.054602687e-05
-4.818235902e-05
-5.454620259e-05
-3.231986921e-05
-6.04333618e-05
-6.113292329e-05
-5.126007818e-05
-4.498525959e-05
-5.894076094e-05
-6.323949492e-05
-6.453091191e-05
-6.462434249e-05
-6.630338612e-05
-6.429228233e-05
-6.602961366e-05
-4.858477041e-05
-2.34868312e-05
-2.107610453e-05
-1.996977153e-05
2.428169682e-05
1.472227837e-06
1.28085012e-05
4.904128582e-05
3.423961243e-05
4.223923315e-05
-2.425974708e-05
-2.736233728e-05
-2.152420348e-05
4.458841067e-05
3.538727833e-05
2.186843085e-05
3.302740652e-06
-9.129938007e-06
-1.877113391e-05
-9.680520634e-06
-2.181768832e-05
-4.383767373e-05
-5.408388824e-05
-5.817966303e-05
-6.234646571e-05
-3.54108488e-05
-6.060709711e-05
-6.547165685e-05
-6.546330405e-05
-6.669662253e-05
-6.82925529e-05
-6.800636038e-05
-2.256336302e-05
-2.428929292e-05
2.384822437e-05
-2.017328825e-06
1.022555625e-05
3.533866038e-05
-2.335117642e-05
-2.685033542e-05
2.296812818e-05
5.640979452e-06
-8.02613522e-06
-1.855607115e-05
-3.327915329e-05
-1.349578361e-05
-2.687682354e-05
-4.872633508e-05
-6.022092202e-05
-6.338121602e-05
-6.569887046e-05
-6.838043191e-05
-4.335304402e-05
-6.620118074e-05
-6.720310921e-05
-6.695983029e-05
-6.850642967e-05
-6.971388939e-05
-7.094774628e-05
-2.550217869e-05
-4.208273822e-06
8.074451216e-06
-6.315609426e-06
-1.813148992e-05
-3.331294283e-05
-5.878673255e-05
-1.543386315e-05
-2.935194425e-05
-6.102204861e-05
-7.465732051e-05
-6.950930401e-05
-7.070611173e-05
-7.093037857e-05
-4.759743024e-05
-7.377390284e-05
-6.890817895e-05
-6.834458327e-05
-6.99191296e-05
-7.248412294e-05
-7.585612911e-05
-1.705574323e-05
-3.282409307e-05
-5.691856859e-05
-8.780433564e-05
-3.142545393e-05
-6.814280641e-05
-8.233779226e-05
-8.281296323e-05
-7.652894419e-05
-7.585788262e-05
-5.164160393e-05
-7.936072507e-05
-7.071095752e-05
-6.985798245e-05
-7.24631609e-05
-7.624056889e-05
-8.069655451e-05
-5.49837896e-05
-8.701227489e-05
-0.0001006942912
-7.534912584e-05
-8.942368004e-05
-8.89475341e-05
-8.838996291e-05
-8.167578198e-05
-9.095550922e-05
-7.225087029e-05
-7.182549598e-05
-7.54666471e-05
-8.028577577e-05
-9.067494102e-05
-8.186248306e-05
-9.901695739e-05
-0.000100154597
-9.51072434e-05
-9.397620306e-05
-9.359255637e-05
-9.36602155e-05
-9.691086598e-05
-7.391102554e-05
-7.384800119e-05
-7.884728257e-05
-8.818609786e-05
-9.528738883e-05
-9.92261339e-05
-0.000102610109
-9.742047405e-05
-9.773124475e-05
-9.926331404e-05
-0.0001024214434
-7.805549103e-05
-7.888840628e-05
-8.497061208e-05
-9.141821647e-05
-9.911784582e-05
-0.0001018038674
-0.0001099318761
-0.000100474339
-0.0001039738199
-0.000106940257
-7.972866297e-05
-8.082421846e-05
-8.736313612e-05
-9.383146244e-05
-0.0001018667754
-0.0001093614337
-0.0001121197711
-0.0001073567037
-0.0001101211528
-8.096775127e-05
-8.230983804e-05
-8.909988537e-05
-9.536002472e-05
-0.000103500046
-0.0001120594097
-0.00010453492
-8.177173004e-05
-8.331511344e-05
-9.022462473e-05
-9.618559852e-05
-0.0001042476579
-9.693069296e-05
-8.222457109e-05
-8.390179573e-05
-9.0801841e-05
-9.626674e-05
-9.20722814e-05
-8.244893979e-05
-8.42314912e-05
-9.149961988e-05
-8.596011321e-05
-8.216031711e-05
-8.49257558e-05
-8.285819786e-05
7.141592505e-05
6.338363164e-05
7.345569611e-05
6.311928882e-05
6.746206054e-05
7.385798381e-05
7.734943938e-05
6.275012856e-05
5.329709529e-05
7.002932398e-05
7.836944133e-05
7.835795259e-05
8.163775783e-05
6.416482211e-05
5.702212729e-05
4.520887887e-05
7.043909136e-05
8.119192353e-05
7.507805276e-05
8.057274681e-05
8.458206139e-05
6.418706471e-05
5.708095341e-05
4.753329267e-05
3.720132736e-05
7.14721682e-05
8.391007577e-05
7.930452557e-05
7.601360267e-05
8.314115985e-05
8.851955499e-05
6.741414836e-05
5.971907012e-05
4.93938569e-05
3.941745672e-05
5.956998575e-05
2.961112477e-05
7.600155368e-05
8.773687296e-05
8.218373841e-05
7.876548625e-05
8.693011478e-05
8.970047202e-05
6.837106775e-05
5.984760355e-05
4.136069765e-05
5.223212429e-05
3.160251799e-05
5.868127118e-05
1.772895484e-05
7.801765605e-05
7.226476009e-05
8.889335732e-05
8.601242735e-05
8.139907004e-05
8.807046106e-05
9.045591287e-05
6.370545452e-05
6.835901877e-05
3.341221964e-05
4.296279076e-05
5.226127178e-05
5.904660065e-05
5.900052656e-06
2.039980245e-05
8.049332973e-05
7.648260362e-05
7.29206804e-05
8.96357742e-05
8.715734293e-05
8.511687338e-05
8.879379311e-05
9.088452498e-05
6.451509398e-05
7.290552458e-05
3.50097107e-05
5.393945321e-05
5.37461965e-05
4.422490747e-05
5.903999408e-05
7.651040505e-06
-3.880936674e-06
2.873296762e-05
1.498565689e-05
8.419767255e-05
7.934091263e-05
7.572655886e-05
9.005370521e-05
8.78884166e-05
8.624288603e-05
8.919814718e-05
9.109446546e-05
6.446337648e-05
7.489007112e-05
6.912019307e-05
3.642371303e-05
5.402034003e-05
5.253388008e-05
4.650670598e-05
6.068520088e-05
9.312363545e-06
-3.017965582e-06
-8.313525541e-06
2.993523594e-05
2.251925434e-05
8.531515778e-05
8.312628779e-05
7.837642625e-05
9.026019688e-05
8.829854778e-05
8.696485747e-05
8.939181862e-05
9.119122114e-05
6.500363816e-05
7.735829422e-05
7.330114749e-05
6.969006063e-05
3.762884444e-05
5.700797919e-05
5.310480992e-05
4.652297503e-05
6.113783456e-05
1.099031761e-05
-2.040689878e-06
-7.860003279e-06
-1.549707667e-05
3.101866605e-05
2.356797631e-05
8.602851449e-05
8.425443957e-05
8.206981875e-05
9.035218682e-05
8.849991718e-05
8.737279131e-05
8.94782861e-05
9.122349729e-05
6.967358786e-05
8.102458378e-05
7.613124762e-05
7.246610039e-05
3.852331793e-05
4.799216549e-05
4.817236186e-05
5.929165854e-05
5.33944185e-05
6.14226301e-05
6.518595183e-05
-8.694478311e-07
2.459338793e-05
1.173683813e-05
1.849299406e-05
-1.138514835e-05
-1.564863669e-05
-2.147703526e-05
3.290849418e-05
4.07108746e-05
8.642966714e-05
8.49755379e-05
8.317908214e-05
9.038596181e-05
8.858671936e-05
8.757442265e-05
8.950644406e-05
7.148995064e-05
8.211654495e-05
7.986402488e-05
7.508186536e-05
4.825078213e-05
4.6662768e-05
5.891687397e-05
5.406277342e-05
6.19681814e-05
6.49196445e-05
6.957497681e-05
7.055193691e-07
-1.067237645e-05
2.559337736e-05
1.273248199e-05
1.952414095e-05
-1.558605072e-05
-2.19933172e-05
-2.660598511e-05
4.213692591e-05
4.072323281e-05
4.194744906e-05
3.28111928e-05
8.662576874e-05
8.538251859e-05
8.388679998e-05
8.861445531e-05
8.766431711e-05
7.393382111e-05
8.280479233e-05
8.096886449e-05
7.873937284e-05
5.091544881e-05
4.71222811e-05
5.832818715e-05
5.463454363e-05
6.535171997e-05
6.533991836e-05
6.853829836e-05
7.251200441e-05
2.743153345e-06
-9.510295058e-06
-1.509742015e-05
2.65914714e-05
3.486158312e-05
1.378893921e-05
2.055952245e-05
-2.230121208e-05
-2.727789433e-05
-3.118850145e-05
4.736836854e-05
4.220566552e-05
4.059043567e-05
8.672025433e-05
8.558478294e-05
8.428446017e-05
8.770204295e-05
7.762367022e-05
8.318445907e-05
8.166804037e-05
7.983390969e-05
5.301551937e-05
5.812478776e-05
6.16453035e-05
5.506828529e-05
6.793241482e-05
6.713927723e-05
7.136246131e-05
7.636693044e-05
1.492014417e-05
-7.788234143e-06
9.794903235e-06
3.815569926e-06
-1.783297921e-05
-2.219135968e-05
2.740080708e-05
3.624226156e-05
3.487580761e-05
3.60684171e-05
2.162393866e-05
2.944747212e-05
-2.780761497e-05
-3.184840898e-05
5.257018711e-05
4.774708941e-05
4.471374268e-05
4.099353828e-05
8.67524941e-05
8.567780606e-05
8.448098379e-05
7.87145982e-05
8.336779138e-05
8.205906488e-05
8.052843623e-05
6.222215598e-05
6.221084914e-05
6.555745495e-05
5.554452582e-05
5.85250018e-05
7.049580745e-05
6.951190153e-05
7.516164624e-05
7.750013901e-05
1.611593689e-05
-5.402951501e-06
-1.644017175e-05
1.114237057e-05
5.159257853e-06
-2.155668517e-05
-2.794675493e-05
4.118547076e-05
3.631039363e-05
3.480685336e-05
3.097535591e-05
3.080450915e-05
2.94608999e-05
2.25523836e-05
-3.246475171e-05
5.19368914e-05
4.823855124e-05
4.666771929e-05
8.570946375e-05
8.456369687e-05
7.940161595e-05
8.344339585e-05
8.225017518e-05
8.091478958e-05
6.478138675e-05
6.392551586e-05
6.825867604e-05
5.888265878e-05
5.886736471e-05
6.231167208e-05
7.410458056e-05
7.300378638e-05
7.63003336e-05
7.820945029e-05
2.470436448e-05
1.738281026e-05
-2.311526714e-06
-1.436010643e-05
-2.034160207e-05
1.259376859e-05
6.660131021e-06
-2.756650429e-05
-3.28019014e-05
4.624074791e-05
4.162453115e-05
3.870869841e-05
3.528152592e-05
3.104066855e-05
3.562731945e-05
2.967675209e-05
5.161310037e-05
5.509077891e-05
4.86198187e-05
8.458954107e-05
7.977518544e-05
8.346578397e-05
8.233068365e-05
8.110202907e-05
6.720098463e-05
6.614172889e-05
7.175152132e-05
6.139848847e-05
6.049285003e-05
6.486084749e-05
7.519307837e-05
7.40419564e-05
7.703217125e-05
7.860842743e-05
2.472705091e-05
1.859109398e-05
2.635083001e-05
2.649059388e-05
-1.149994478e-05
8.313513717e-06
-1.844713188e-05
-2.669763126e-05
1.417603835e-05