/*--------------------------------*- C++ -*----------------------------------*\
  =========                 |
  \\      /  F ield         | OpenFOAM: The Open Source CFD Toolbox
   \\    /   O peration     | Website:  https://openfoam.org
    \\  /    A nd           | Version:  8
     \\/     M anipulation  |
\*---------------------------------------------------------------------------*/







FoamFile
{
    version     2.0;
    format      ascii;
    class       volSymmTensorField;
    location    "0";
    object      TauDDES;
}
// * * * * * * * * * * * * * * * * * * * * * * * * * * * * * * * * * * * * * //

dimensions      [0 2 -2 0 0 0 0];


internalField   nonuniform List<symmTensor>
8940
(
( 1.468720075e-05 6.526574452e-06 4.867782195e-07 2.16130702e-05 3.520526377e-07 6.656277401e-05 )
( 1.799389247e-05 3.739530939e-06 5.279538868e-07 2.055829464e-05 3.180106205e-07 6.556425069e-05 )
( 1.404858722e-05 7.324384569e-06 4.399080069e-07 2.179782132e-05 3.426850128e-07 6.512819527e-05 )
( 1.811170841e-05 3.647776111e-06 5.283193332e-07 2.052728632e-05 3.159084372e-07 6.547084195e-05 )
( 1.623837306e-05 5.231077466e-06 5.030034913e-07 2.092705836e-05 3.445234711e-07 6.541651237e-05 )
( 1.330467148e-05 8.205662198e-06 3.770203421e-07 2.209633567e-05 3.230618688e-07 6.369672337e-05 )
( 1.269428867e-05 8.704908396e-06 3.916844946e-07 2.254160427e-05 3.122914904e-07 6.489641237e-05 )
( 1.763247565e-05 4.097814781e-06 5.072765816e-07 2.038847015e-05 3.404329334e-07 6.4220083e-05 )
( 2.204266275e-05 6.511721153e-07 5.144338502e-07 1.975009218e-05 2.283802303e-07 6.193014269e-05 )
( 1.461872125e-05 6.88835371e-06 4.10446205e-07 2.129448876e-05 3.516303764e-07 6.339773245e-05 )
( 1.181994503e-05 9.617505384e-06 3.243588367e-07 2.296328603e-05 2.797426362e-07 6.288644363e-05 )
( 1.181917014e-05 9.618936929e-06 3.240059812e-07 2.296390812e-05 2.796229239e-07 6.287260476e-05 )
( 1.105280353e-05 1.033578519e-05 3.122360113e-07 2.36204105e-05 2.63136485e-07 6.27790796e-05 )
( 1.694995444e-05 4.712893315e-06 4.691758306e-07 2.044223584e-05 3.582691193e-07 6.317356747e-05 )
( 1.95398643e-05 2.648552709e-06 4.801602245e-07 1.982296817e-05 3.02739835e-07 6.181133358e-05 )
( 2.462564589e-05 -1.200357019e-06 4.391651487e-07 1.970015182e-05 1.288880327e-07 5.843555846e-05 )
( 1.400264955e-05 7.716183063e-06 3.585545869e-07 2.154613139e-05 3.274240328e-07 6.229348946e-05 )
( 1.08047243e-05 1.061241255e-05 2.651872819e-07 2.36295491e-05 2.366749214e-07 6.113247218e-05 )
( 1.245281055e-05 9.24246342e-06 2.996752357e-07 2.250718717e-05 2.877353324e-07 6.165172817e-05 )
( 1.080456786e-05 1.065941069e-05 2.442213258e-07 2.356137702e-05 2.257322933e-07 6.032174861e-05 )
( 9.675693946e-06 1.128108124e-05 2.221991764e-07 2.406426756e-05 1.976372772e-07 5.868178414e-05 )
( 1.628991959e-05 5.327576673e-06 4.311187354e-07 2.053226308e-05 3.680719942e-07 6.259257498e-05 )
( 1.948354475e-05 2.694396926e-06 4.783182135e-07 1.98230191e-05 3.043649599e-07 6.178597687e-05 )
( 2.268650132e-05 2.78058252e-07 4.229066235e-07 1.937719207e-05 2.046033103e-07 5.859773592e-05 )
( 2.708817556e-05 -2.868367574e-06 3.379189764e-07 1.99937349e-05 2.447600878e-08 5.487382077e-05 )
( 1.311517099e-05 8.699734281e-06 3.012639809e-07 2.18526875e-05 2.920101849e-07 6.064574336e-05 )
( 8.308637916e-06 1.161491582e-05 1.076425065e-07 2.356866753e-05 8.973539423e-08 5.148486525e-05 )
( 1.093594983e-05 1.068229813e-05 2.164655655e-07 2.345063513e-05 2.177602028e-07 5.924669676e-05 )
( 1.169967618e-05 1.006865023e-05 2.363118909e-07 2.284908987e-05 2.424117156e-07 5.957797111e-05 )
( 9.572756426e-06 1.141246958e-05 1.631474476e-07 2.387556015e-05 1.517441177e-07 5.621741002e-05 )
( 7.159549568e-06 1.120915022e-05 7.113817446e-08 2.243111339e-05 4.50416735e-08 4.575433195e-05 )
( 1.44439864e-05 7.415045729e-06 3.50053142e-07 2.116963697e-05 3.271243258e-07 6.098996892e-05 )
( 1.755790618e-05 4.431582056e-06 4.107877487e-07 2.004523049e-05 3.356818468e-07 6.096196739e-05 )
( 2.086458335e-05 1.733074441e-06 3.787874903e-07 1.918778435e-05 2.631321081e-07 5.826348206e-05 )
( 2.509561455e-05 -1.490240265e-06 3.40912294e-07 1.946952762e-05 1.093407036e-07 5.541486462e-05 )
( 1.756923302e-05 4.430668014e-06 4.080048654e-07 2.002960719e-05 3.341612569e-07 6.086140638e-05 )
( 2.929870607e-05 -4.321658253e-06 2.224231821e-07 2.049748218e-05 -4.68258321e-08 5.147259799e-05 )
( 1.169919597e-05 1.006942512e-05 2.361016556e-07 2.284705261e-05 2.421609793e-07 5.95647507e-05 )
( 7.098615242e-06 1.115289615e-05 4.299349143e-08 2.211596075e-05 1.611912026e-08 4.435220762e-05 )
( 9.629725355e-06 1.14796876e-05 1.348531384e-07 2.37155491e-05 1.317843612e-07 5.511910422e-05 )
( 1.072939631e-05 1.092824004e-05 1.810660279e-07 2.340119863e-05 1.899730933e-07 5.768784467e-05 )
( 7.14476937e-06 1.116416388e-05 2.34143549e-08 2.1942893e-05 -4.754115768e-09 4.360098683e-05 )
( 5.865731055e-06 1.000085467e-05 2.004750144e-08 1.972523205e-05 -1.070615951e-08 3.705656491e-05 )
( 1.375125157e-05 8.3418754e-06 3.040861998e-07 2.144030077e-05 2.876171266e-07 5.960772614e-05 )
( 1.748305112e-05 4.501089279e-06 4.086847696e-07 2.00604627e-05 3.358417189e-07 6.093667253e-05 )
( 2.318963743e-05 -8.114733419e-08 3.019821122e-07 1.904602868e-05 1.926712514e-07 5.560604768e-05 )
( 1.864670048e-05 3.697482043e-06 3.257690366e-07 1.92470161e-05 3.002940616e-07 5.767620314e-05 )
( 2.732517532e-05 -3.054441095e-06 2.269806458e-07 1.982557842e-05 4.840893908e-08 5.226206122e-05 )
( 1.689274541e-05 5.13268651e-06 3.568385409e-07 1.988986696e-05 3.26453403e-07 5.940669507e-05 )
( 3.095844659e-05 -5.536659046e-06 3.049254715e-08 2.079431761e-05 6.277342379e-08 4.660611739e-05 )
( 1.075133696e-05 1.096625874e-05 1.69763851e-07 2.332038821e-05 1.745114844e-07 5.695166692e-05 )
( 1.245608746e-05 9.62480226e-06 2.43362706e-07 2.217704969e-05 2.400030894e-07 5.859154044e-05 )
( 5.818101272e-06 9.893959032e-06 -1.25541666e-09 1.933125168e-05 -3.477595456e-08 3.586711318e-05 )
( 7.168439879e-06 1.115708073e-05 5.404190873e-09 2.176412818e-05 -2.456128811e-08 4.268746125e-05 )
( 8.316505046e-06 1.166953007e-05 3.818020389e-08 2.302995927e-05 2.220235729e-08 4.818396337e-05 )
( 5.855980817e-06 9.890498404e-06 -1.54383315e-08 1.915285975e-05 -5.232234912e-08 3.523831401e-05 )
( 4.444404112e-06 7.991397979e-06 -8.867670154e-09 1.560060628e-05 -4.113273633e-08 2.742653487e-05 )
( 1.56071128e-05 6.310353456e-06 3.650055191e-07 2.056024277e-05 3.256485854e-07 6.044905604e-05 )
( 1.318286832e-05 9.092418622e-06 2.549080875e-07 2.15437758e-05 2.443090921e-07 5.781001164e-05 )
( 2.538980334e-05 -1.751329137e-06 2.119691516e-07 1.921308831e-05 1.436564645e-07 5.278158278e-05 )
( 2.143412348e-05 1.372024258e-06 2.73211441e-07 1.872504436e-05 2.610018157e-07 5.544622763e-05 )
( 1.859893382e-05 3.740255579e-06 3.243083029e-07 1.924501339e-05 3.006661018e-07 5.764353409e-05 )
( 1.632839121e-05 5.741070709e-06 3.252799843e-07 1.996782521e-05 3.133195321e-07 5.862539911e-05 )
( 3.348364771e-05 -7.205120255e-06 -1.069901003e-07 2.183517427e-05 1.625762138e-07 4.201287811e-05 )
( 2.720555494e-05 -3.256137234e-06 7.571318861e-08 1.910393439e-05 2.232644079e-07 4.819341848e-05 )
( 8.362612789e-06 1.167776281e-05 2.552046396e-08 2.28650897e-05 9.74487957e-09 4.739209908e-05 )
( 1.093330047e-05 1.095026255e-05 1.602462163e-07 2.309923002e-05 1.570136874e-07 5.599681026e-05 )
( 1.176686874e-05 1.037721449e-05 1.938477112e-07 2.246095755e-05 1.842106485e-07 5.654414053e-05 )
( 4.408195764e-06 7.872533388e-06 -2.192866688e-08 1.520929709e-05 -5.635093814e-08 2.652238254e-05 )
( 5.868135759e-06 9.862522347e-06 -2.903085772e-08 1.897346374e-05 -6.87713424e-08 3.449255746e-05 )
( 7.107950751e-06 1.109070945e-05 -1.227812785e-08 2.145333383e-05 -4.131806008e-08 4.136281132e-05 )
( 4.436342351e-06 7.863573046e-06 -3.295724227e-08 1.505903765e-05 -7.21163218e-08 2.604790097e-05 )
( 2.965880185e-06 5.493761819e-06 -1.84438278e-08 1.063023774e-05 -4.668039111e-08 1.788684858e-05 )
( 1.431617238e-05 7.847300367e-06 2.916923734e-07 2.076489e-05 2.75127519e-07 5.825375047e-05 )
( 1.17671716e-05 1.037782749e-05 1.937060858e-07 2.245941687e-05 1.839729293e-07 5.653229891e-05 )
( 2.355494507e-05 -3.935998336e-07 1.899257569e-07 1.86749603e-05 2.29726794e-07 5.302390855e-05 )
( 1.691705256e-05 5.425265044e-06 2.752839805e-07 1.932379382e-05 2.951183831e-07 5.640962627e-05 )
( 1.690559111e-05 5.428894383e-06 2.777195789e-07 1.934413012e-05 2.958123844e-07 5.64942784e-05 )
( 1.977508146e-05 2.824236617e-06 2.463341104e-07 1.846642226e-05 3.031836115e-07 5.481863263e-05 )
( 1.579834498e-05 6.293873867e-06 2.977395468e-07 1.987722862e-05 3.063032352e-07 5.767734547e-05 )
( 3.163171641e-05 -6.200387361e-06 -4.660094532e-08 2.079230399e-05 2.363025402e-07 4.296265615e-05 )
( 3.447177005e-05 -7.819468919e-06 -1.525475852e-07 2.242154733e-05 1.775784142e-07 4.004258517e-05 )
( 2.365712498e-05 -5.967203833e-07 1.390391162e-07 1.815482574e-05 2.772187031e-07 5.076996968e-05 )
( 2.535851672e-05 -2.020183047e-06 9.916265498e-08 1.825376603e-05 2.755209607e-07 4.862482456e-05 )
( 7.140929483e-06 1.107718344e-05 -2.307566405e-08 2.125166429e-05 -5.134930703e-08 4.061661821e-05 )
( 8.414397598e-06 1.16825704e-05 1.228434066e-08 2.264245086e-05 -3.043613361e-09 4.646246816e-05 )
( 1.078642345e-05 1.116642761e-05 1.32216357e-07 2.297137689e-05 1.231626925e-07 5.451403194e-05 )
( 2.944642119e-06 5.400171176e-06 -2.614810057e-08 1.032515684e-05 -5.593407337e-08 1.728738971e-05 )
( 4.443753824e-06 7.833714335e-06 -3.990718156e-08 1.491133116e-05 -8.039383204e-08 2.550467252e-05 )
( 5.812997642e-06 9.750771824e-06 -3.912735025e-08 1.861499732e-05 -7.761389043e-08 3.334275607e-05 )
( 2.96731946e-06 5.399047041e-06 -3.121091297e-08 1.023443656e-05 -6.280908593e-08 1.697623884e-05 )
( 1.631790383e-06 3.066393674e-06 -1.537893546e-08 5.886305189e-06 -3.385180136e-08 9.704551303e-06 )
( 1.384064581e-05 8.573017112e-06 2.43953167e-07 2.079335536e-05 2.376798278e-07 5.676319779e-05 )
( 1.083087864e-05 1.12082771e-05 1.212789869e-07 2.281484012e-05 1.110529482e-07 5.38135464e-05 )
( 1.244774103e-05 9.987399608e-06 1.923732071e-07 2.173824032e-05 1.831670318e-07 5.565624451e-05 )
( 2.178069917e-05 1.041267069e-06 1.935355129e-07 1.819662793e-05 2.944184985e-07 5.289245746e-05 )
( 1.684283234e-05 5.492804121e-06 2.759350366e-07 1.935377441e-05 2.949641953e-07 5.645550118e-05 )
( 1.629160033e-05 6.1472997e-06 2.276799478e-07 1.906981561e-05 2.867411411e-07 5.495993537e-05 )
( 1.777463694e-05 4.796750545e-06 2.060949527e-07 1.839429751e-05 3.060978599e-07 5.380078073e-05 )
( 1.423160484e-05 8.273189451e-06 2.23388966e-07 2.029110874e-05 2.401203858e-07 5.573704766e-05 )
( 2.804705036e-05 -4.154709131e-06 5.787728696e-08 1.873119436e-05 3.214589981e-07 4.464421727e-05 )
( 3.267926149e-05 -6.877585747e-06 -8.841968935e-08 2.13375406e-05 2.327300024e-07 4.09572749e-05 )
( 3.578289034e-05 -8.5848651e-06 -2.21469648e-07 2.344458335e-05 5.513980739e-08 3.70353082e-05 )
( 2.192493412e-05 8.366934026e-07 1.579161761e-07 1.751838863e-05 3.206778558e-07 5.06783108e-05 )
( 2.358465827e-05 -6.89696094e-07 1.230767026e-07 1.743144821e-05 3.130339792e-07 4.883395013e-05 )
( 5.821817922e-06 9.706132005e-06 -4.647430885e-08 1.839243123e-05 -8.310684763e-08 3.267575084e-05 )
( 7.157437267e-06 1.103827071e-05 -3.197659382e-08 2.100720121e-05 -5.754645116e-08 3.976824519e-05 )
( 8.349424206e-06 1.165641424e-05 -5.039905382e-09 2.232525367e-05 -2.330587634e-08 4.510174404e-05 )
( 1.625423693e-06 3.014980621e-06 -1.86906739e-08 5.706604952e-06 -3.780247226e-08 9.370990483e-06 )
( 2.9747805e-06 5.382274594e-06 -3.53840619e-08 1.014448935e-05 -6.78528167e-08 1.663876719e-05 )
( 4.393999916e-06 7.711297258e-06 -4.487928962e-08 1.457091639e-05 -8.300204257e-08 2.459494681e-05 )
( 1.643486371e-06 3.024133093e-06 -2.071098315e-08 5.675690318e-06 -4.013822164e-08 9.201655303e-06 )
( 6.575617704e-07 1.242270514e-06 -7.433512028e-09 2.368918103e-06 -1.548635176e-08 3.897484476e-06 )
( 1.307537786e-05 9.4560055e-06 1.885310468e-07 2.094241609e-05 1.919076311e-07 5.501672786e-05 )
( 8.393805729e-06 1.164250807e-05 -1.446419517e-08 2.205270903e-05 -3.322824682e-08 4.430039189e-05 )
( 1.100152622e-05 1.119644912e-05 1.077267413e-07 2.252689956e-05 9.836201542e-08 5.288387183e-05 )
( 1.177685681e-05 1.067431549e-05 1.321938328e-07 2.187575774e-05 1.320232741e-07 5.353383312e-05 )
( 2.013079029e-05 2.551599209e-06 1.894337345e-07 1.777744365e-05 3.283516037e-07 5.240972678e-05 )
( 1.518228692e-05 7.259380709e-06 2.348027976e-07 1.974403494e-05 2.604795952e-07 5.556704855e-05 )
( 1.578619595e-05 6.808644684e-06 1.929078906e-07 1.907142905e-05 2.757359994e-07 5.413481267e-05 )
( 1.772571159e-05 4.845627245e-06 2.046256782e-07 1.838924072e-05 3.059280402e-07 5.376158879e-05 )
( 1.36182407e-05 9.1617203e-06 1.720303544e-07 2.043744462e-05 2.007196542e-07 5.426728239e-05 )
( 2.464175122e-05 -1.877198656e-06 1.270172021e-07 1.663128569e-05 3.483420983e-07 4.551232269e-05 )
( 2.336513353e-05 -6.83595033e-07 1.270948218e-07 1.653062645e-05 3.406362055e-07 4.714589159e-05 )
( 2.918183054e-05 -4.998786153e-06 4.965131595e-08 1.915705798e-05 3.09214613e-07 4.271832222e-05 )
( 3.413317245e-05 -7.728929631e-06 -1.496498783e-07 2.236009459e-05 9.864923811e-08 3.782934073e-05 )
( 2.031794793e-05 2.344849918e-06 1.581872198e-07 1.691415309e-05 3.38722856e-07 5.023971607e-05 )
( 2.192253669e-05 7.223794682e-07 1.399885861e-07 1.662494287e-05 3.368615467e-07 4.874321166e-05 )
( 4.378523954e-06 7.642382116e-06 -4.952303456e-08 1.435263766e-05 -8.787220196e-08 2.404099541e-05 )
( 5.807259186e-06 9.629318811e-06 -5.305565409e-08 1.812965274e-05 -8.967887766e-08 3.19451683e-05 )
( 7.086437563e-06 1.092915772e-05 -4.409090693e-08 2.059180042e-05 -7.249306577e-08 3.848734559e-05 )
( 6.585462984e-07 1.224177709e-06 -8.497242021e-09 2.295424792e-06 -1.661508975e-08 3.754402314e-06 )
( 1.650796548e-06 3.021445536e-06 -2.241979047e-08 5.641327789e-06 -4.225217509e-08 9.034067261e-06 )
( 2.933525593e-06 5.278772278e-06 -3.7187732e-08 9.88132706e-06 -6.829717591e-08 1.599909228e-05 )
( 6.693587125e-07 1.234349838e-06 -9.190596728e-09 2.29558691e-06 -1.74957453e-08 3.686908485e-06 )
( 1.814447046e-07 3.426796411e-07 -2.124652232e-09 6.499086567e-07 -4.379329344e-09 1.081023811e-06 )
( 1.177678496e-05 1.067436278e-05 1.319497329e-07 2.18721998e-05 1.318261837e-07 5.352314838e-05 )
( 7.102955806e-06 1.08713366e-05 -5.056777042e-08 2.025827234e-05 -7.936434088e-08 3.77089309e-05 )
( 8.44774695e-06 1.162474655e-05 -2.458099146e-08 2.171681626e-05 -4.217685046e-08 4.339183215e-05 )
( 1.08430504e-05 1.136735682e-05 7.773590482e-08 2.229618258e-05 7.257386159e-08 5.143730959e-05 )
( 1.862655517e-05 4.063418601e-06 1.659285118e-07 1.738732863e-05 3.293262125e-07 5.149147182e-05 )
( 1.623092976e-05 6.541454695e-06 1.46329441e-07 1.826783046e-05 2.7448624e-07 5.218611477e-05 )
( 1.622776472e-05 6.536714864e-06 1.480402858e-07 1.829331086e-05 2.748864745e-07 5.225797941e-05 )
( 1.441891163e-05 8.302005881e-06 1.859060887e-07 1.981159221e-05 2.353164916e-07 5.445363058e-05 )
( 1.532376336e-05 7.348770851e-06 1.563610397e-07 1.886579957e-05 2.616427537e-07 5.310039342e-05 )
( 1.360876286e-05 9.176598724e-06 1.711352979e-07 2.043960558e-05 2.000474382e-07 5.424082337e-05 )
( 1.250360219e-05 1.026386781e-05 1.235906382e-07 2.105237763e-05 1.432801753e-07 5.291195703e-05 )
( 2.303828296e-05 -5.928170594e-07 1.391604201e-07 1.554255687e-05 3.592381006e-07 4.569568409e-05 )
( 2.570564538e-05 -2.855462071e-06 1.422969689e-07 1.68739698e-05 3.409500664e-07 4.388520392e-05 )
( 2.181623677e-05 7.185182085e-07 1.252531092e-07 1.55754642e-05 3.505005566e-07 4.712121154e-05 )
( 3.08088056e-05 -6.128514997e-06 3.808652238e-08 2.013625999e-05 1.890701498e-07 3.952645056e-05 )
( 1.659862937e-05 6.38556412e-06 1.019663571e-07 1.715206236e-05 2.694099237e-07 4.990637171e-05 )
( 1.661169154e-05 6.377351383e-06 1.012773723e-07 1.71237516e-05 2.694188765e-07 4.986020576e-05 )
( 1.899899507e-05 3.852233021e-06 1.293958718e-07 1.634824366e-05 3.304469942e-07 4.953650568e-05 )
( 2.045161818e-05 2.229640131e-06 1.271917824e-07 1.585264908e-05 3.427069544e-07 4.843437273e-05 )
( 2.904688245e-06 5.204651188e-06 -3.892992595e-08 9.699077054e-06 -6.965206722e-08 1.560085911e-05 )
( 4.34494541e-06 7.5455755e-06 -5.28022035e-08 1.409703236e-05 -9.013541558e-08 2.347863483e-05 )
( 5.727692042e-06 9.462548405e-06 -5.972285066e-08 1.765346497e-05 -9.697059511e-08 3.081656541e-05 )
( 1.829435945e-07 3.379917644e-07 -2.465466276e-09 6.267470098e-07 -4.796925079e-09 1.030585054e-06 )
( 6.740330605e-07 1.237524202e-06 -9.510396914e-09 2.29174384e-06 -1.774753144e-08 3.631073469e-06 )
( 1.62133415e-06 2.951917168e-06 -2.252358655e-08 5.478641924e-06 -4.12593586e-08 8.658181287e-06 )
( 1.869689186e-07 3.437291127e-07 -2.532882348e-09 6.342517622e-07 -4.854660673e-09 1.014041231e-06 )
( 1.089466605e-05 1.138758853e-05 6.657940332e-08 2.210645835e-05 6.821110787e-08 5.082262214e-05 )
( 5.707533091e-06 9.352008419e-06 -6.25893577e-08 1.726981282e-05 -9.891597585e-08 3.010741602e-05 )
( 7.132140581e-06 1.081146456e-05 -5.553559035e-08 1.989297562e-05 -8.223916836e-08 3.691091479e-05 )
( 8.405157132e-06 1.157640781e-05 -3.662701431e-08 2.131446854e-05 -5.428886141e-08 4.216462912e-05 )
( 1.617352063e-05 6.600018423e-06 1.458827228e-07 1.829616303e-05 2.729817083e-07 5.220643288e-05 )
( 1.566121318e-05 7.314574759e-06 1.020669416e-07 1.783693369e-05 2.474276926e-07 5.068295286e-05 )
( 1.401792542e-05 8.822496056e-06 1.438831561e-07 1.974467523e-05 2.062378286e-07 5.309157496e-05 )
( 1.482668813e-05 7.982024727e-06 1.25182666e-07 1.89038692e-05 2.295427635e-07 5.211604366e-05 )
( 1.190743387e-05 1.085863732e-05 7.607430774e-08 2.115077586e-05 1.012794613e-07 5.086349847e-05 )
( 1.190844705e-05 1.085839449e-05 7.59176686e-08 2.114851486e-05 1.012557647e-07 5.085557132e-05 )
( 1.1090925e-05 1.135277034e-05 5.447946094e-08 2.175867849e-05 6.417725729e-08 5.004158811e-05 )
( 2.160969962e-05 7.530766766e-07 1.259127487e-07 1.445741873e-05 3.654974989e-07 4.572652688e-05 )
( 2.259337998e-05 -4.694181825e-07 1.566777712e-07 1.453167079e-05 3.588884283e-07 4.447114043e-05 )
( 2.343814413e-05 -1.516380166e-06 1.999561192e-07 1.481326944e-05 3.337605676e-07 4.321766755e-05 )
( 2.73798214e-05 -4.366808753e-06 1.865982853e-07 1.776923636e-05 2.656972811e-07 4.095881013e-05 )
( 2.047492671e-05 2.168777883e-06 1.086959642e-07 1.464074376e-05 3.562452093e-07 4.690396599e-05 )
( 1.654327752e-05 6.448176464e-06 1.001075915e-07 1.714757309e-05 2.672330766e-07 4.985818305e-05 )
( 1.625819641e-05 6.930389191e-06 7.369914812e-08 1.655474443e-05 2.582558807e-07 4.882802023e-05 )
( 1.737562161e-05 5.804949524e-06 8.03109117e-08 1.578941192e-05 2.932231382e-07 4.829776299e-05 )
( 1.919817078e-05 3.743262823e-06 9.778713661e-08 1.508280184e-05 3.358069591e-07 4.786782665e-05 )
( 1.59334104e-06 2.893466444e-06 -2.377949215e-08 5.356135716e-06 -4.307600321e-08 8.425963642e-06 )
( 2.865611805e-06 5.112603048e-06 -4.094270878e-08 9.488553587e-06 -7.162315541e-08 1.5228552e-05 )
( 4.259723028e-06 7.356307378e-06 -5.613080134e-08 1.362790044e-05 -9.366159048e-08 2.256757762e-05 )
( 1.894678547e-07 3.47091401e-07 -2.820070844e-09 6.382388165e-07 -5.280322846e-09 1.008848585e-06 )
( 6.578267744e-07 1.202510362e-06 -9.940462675e-09 2.216366283e-06 -1.821646123e-08 3.464342626e-06 )
( 8.484164937e-06 1.156423605e-05 -4.164980183e-08 2.102883263e-05 -5.837689798e-08 4.153740883e-05 )
( 4.207992333e-06 7.207919225e-06 -5.638469602e-08 1.323258584e-05 -9.201875173e-08 2.198355469e-05 )
( 5.717487966e-06 9.263299035e-06 -6.476010128e-08 1.688982047e-05 -9.778969456e-08 2.947521716e-05 )
( 7.105493751e-06 1.071175848e-05 -6.230810357e-08 1.943072857e-05 -8.892238412e-08 3.5830868e-05 )
( 1.473942484e-05 8.324225746e-06 9.253822952e-08 1.849932596e-05 2.103434724e-07 5.081715426e-05 )
( 1.506618355e-05 8.016971151e-06 7.065933971e-08 1.774023622e-05 2.135463149e-07 4.955728218e-05 )
( 1.220235572e-05 1.068475558e-05 5.836189843e-08 2.05023498e-05 1.063206057e-07 4.980971062e-05 )
( 1.220353079e-05 1.068350139e-05 5.816060877e-08 2.049728573e-05 1.063020605e-07 4.98017107e-05 )
( 1.394856372e-05 9.211174984e-06 7.755824072e-08 1.898705887e-05 1.752907224e-07 5.064131255e-05 )
( 1.288410931e-05 1.024792618e-05 4.734908998e-08 1.949133002e-05 1.233077285e-07 4.929420174e-05 )
( 1.097453423e-05 1.147952753e-05 3.005840554e-08 2.14856409e-05 4.892608985e-08 4.867943062e-05 )
( 1.100990903e-05 1.147774765e-05 2.290332723e-08 2.126297113e-05 4.629068684e-08 4.809885286e-05 )
( 8.562506991e-06 1.154640267e-05 -4.525693242e-08 2.070550363e-05 -6.120863816e-08 4.075631296e-05 )
( 2.031093391e-05 2.131077053e-06 1.147987874e-07 1.337172307e-05 3.552763133e-07 4.562041431e-05 )
( 2.121252146e-05 8.066097621e-07 1.337717208e-07 1.331938711e-05 3.415467802e-07 4.459630873e-05 )
( 2.199513801e-05 -3.562811344e-07 1.72580954e-07 1.35092796e-05 3.026920581e-07 4.352211181e-05 )
( 2.412053982e-05 -2.392770057e-06 2.541657693e-07 1.521486411e-05 3.002597282e-07 4.199322575e-05 )
( 1.926870027e-05 3.603561481e-06 9.555949987e-08 1.369484562e-05 3.464337226e-07 4.647443347e-05 )
( 1.542954669e-05 7.776796338e-06 6.447833556e-08 1.701388464e-05 2.246654844e-07 4.878443724e-05 )
( 1.582513141e-05 7.572615687e-06 5.286033655e-08 1.610927757e-05 2.419595546e-07 4.776887363e-05 )
( 1.733504723e-05 5.855672043e-06 7.886660569e-08 1.576916111e-05 2.923078739e-07 4.825562792e-05 )
( 1.802347651e-05 5.172979854e-06 7.667233604e-08 1.424478978e-05 3.224612044e-07 4.694344534e-05 )
( 1.627574784e-05 7.170118351e-06 5.882789722e-08 1.503543353e-05 2.713425999e-07 4.681647624e-05 )
( 1.626457197e-05 7.182312402e-06 5.86384985e-08 1.507631714e-05 2.703382052e-07 4.685090244e-05 )
( 6.414090876e-07 1.171594249e-06 -9.969748582e-09 2.157882363e-06 -1.816767536e-08 3.368058287e-06 )
( 1.562682428e-06 2.828322295e-06 -2.419805689e-08 5.219834748e-06 -4.305896439e-08 8.230655112e-06 )
( 2.787119911e-06 4.941945917e-06 -4.180566648e-08 9.102525837e-06 -7.177455785e-08 1.458372208e-05 )
( 1.823754587e-07 3.330854099e-07 -2.798041576e-09 6.10455686e-07 -5.168404371e-09 9.495929589e-07 )
( 7.177378848e-06 1.069381324e-05 -6.533284846e-08 1.91418676e-05 -9.3995979e-08 3.52689749e-05 )
( 2.723779062e-06 4.79295295e-06 -4.091158701e-08 8.759057891e-06 -6.909676387e-08 1.417043404e-05 )
( 4.209371582e-06 7.115037533e-06 -5.687991944e-08 1.288296608e-05 -8.961745834e-08 2.154832691e-05 )
( 5.706255706e-06 9.149739526e-06 -6.777320749e-08 1.643144969e-05 -1.005515031e-07 2.859886808e-05 )
( 1.386014264e-05 9.388217222e-06 5.185590979e-08 1.844730104e-05 1.568205334e-07 4.920922584e-05 )
( 1.445927774e-05 8.768111002e-06 4.41823218e-08 1.757981408e-05 1.778613523e-07 4.860623812e-05 )
( 1.116146359e-05 1.14139184e-05 1.36910554e-08 2.087252869e-05 4.864322634e-08 4.744512262e-05 )
( 1.13097849e-05 1.138990228e-05 7.116836898e-09 2.055517325e-05 5.440163164e-08 4.704087405e-05 )
( 1.233198782e-05 1.076454009e-05 1.482726475e-08 1.937054913e-05 8.67650698e-08 4.734596951e-05 )
( 1.23312484e-05 1.076529497e-05 1.490159995e-08 1.937367961e-05 8.680684971e-08 4.73535074e-05 )
( 1.152034383e-05 1.130314195e-05 -3.730712184e-09 2.002782276e-05 5.647574852e-08 4.634834113e-05 )
( 8.499420801e-06 1.145291026e-05 -5.20585175e-08 2.025453432e-05 -6.771806227e-08 3.954958447e-05 )
( 9.852532457e-06 1.172395332e-05 -2.212415495e-08 2.095138552e-05 -1.298998598e-08 4.403492858e-05 )
( 7.224813089e-06 1.065017477e-05 -6.768083693e-08 1.883227378e-05 -9.7933615e-08 3.457568164e-05 )
( 1.816088297e-05 4.865534265e-06 1.039310433e-07 1.263367085e-05 3.212422541e-07 4.570000237e-05 )
( 1.996835817e-05 2.070586788e-06 1.249334929e-07 1.207842797e-05 3.023735928e-07 4.461008211e-05 )
( 2.069537732e-05 8.194050451e-07 1.410137855e-07 1.215291832e-05 2.621435442e-07 4.377372534e-05 )
( 2.258929453e-05 -1.323515562e-06 2.216561086e-07 1.381504808e-05 2.680304476e-07 4.242906289e-05 )
( 2.129661516e-05 -2.485445521e-07 1.803099678e-07 1.241413338e-05 2.141033804e-07 4.290220386e-05 )
( 1.65567526e-05 6.862670489e-06 8.74567192e-08 1.331369003e-05 2.892566613e-07 4.543474643e-05 )
( 1.655327469e-05 6.864802344e-06 8.828907028e-08 1.326913844e-05 2.889118775e-07 4.539190195e-05 )
( 1.812565279e-05 4.913298199e-06 1.029446537e-07 1.266514209e-05 3.211677324e-07 4.571680256e-05 )
( 1.476065881e-05 8.770514796e-06 3.833423889e-08 1.664878437e-05 1.903776052e-07 4.749502841e-05 )
( 1.437819265e-05 9.198377484e-06 3.352006317e-08 1.632753629e-05 1.753319339e-07 4.626849841e-05 )
( 1.490089471e-05 8.668022019e-06 4.536509834e-08 1.55501275e-05 2.110611206e-07 4.585180068e-05 )
( 1.601329495e-05 7.487436051e-06 6.699919197e-08 1.414570306e-05 2.758816322e-07 4.586324212e-05 )
( 1.766737796e-07 3.230151719e-07 -2.853289827e-09 5.926919471e-07 -5.271281633e-09 9.250100561e-07 )
( 6.261839758e-07 1.141060238e-06 -1.017746243e-08 2.097225206e-06 -1.833352492e-08 3.298631782e-06 )
( 1.505610044e-06 2.709174623e-06 -2.45083065e-08 4.967252607e-06 -4.305604762e-08 7.852260751e-06 )
( 5.764322395e-06 9.129772479e-06 -7.065438723e-08 1.617898306e-05 -1.055329406e-07 2.813271931e-05 )
( 1.454537824e-06 2.599036407e-06 -2.387713316e-08 4.732622074e-06 -4.153468325e-08 7.617260508e-06 )
( 2.727512538e-06 4.723315669e-06 -4.131157993e-08 8.494727808e-06 -6.795577434e-08 1.39262047e-05 )
( 4.215113677e-06 7.025090326e-06 -5.865732078e-08 1.250842161e-05 -9.037960069e-08 2.091020542e-05 )
( 1.272344343e-05 1.058054841e-05 1.330374566e-08 1.866528328e-05 8.57774296e-08 4.657905083e-05 )
( 1.272217378e-05 1.058073121e-05 1.342609401e-08 1.86701327e-05 8.584010658e-08 4.658683247e-05 )
( 1.409412198e-05 9.405997844e-06 2.630522111e-08 1.716254519e-05 1.508509513e-07 4.710197027e-05 )
( 1.319749026e-05 1.025380789e-05 6.162509614e-09 1.763292494e-05 9.542426227e-08 4.586117575e-05 )
( 8.597075976e-06 1.131883619e-05 -5.940825787e-08 1.94819404e-05 -6.634045491e-08 3.827855835e-05 )
( 1.006127513e-05 1.162378339e-05 -3.429450857e-08 2.017674342e-05 -6.256865248e-09 4.294255632e-05 )
( 1.14537479e-05 1.131420322e-05 -1.657111959e-08 1.934690772e-05 4.151047506e-08 4.473733134e-05 )
( 1.139532014e-05 1.134525701e-05 -1.473826572e-08 1.962721944e-05 4.404553877e-08 4.516127956e-05 )
( 8.76975264e-06 1.117098236e-05 -7.195244933e-08 1.859511758e-05 -6.047567069e-08 3.717659638e-05 )
( 7.157097116e-06 1.049628827e-05 -7.085283471e-08 1.832604357e-05 -1.011264388e-07 3.346209996e-05 )
( 7.184969945e-06 1.041371706e-05 -7.3297727e-08 1.7946144e-05 -1.017855666e-07 3.283496335e-05 )
( 5.789790521e-06 9.0749636e-06 -7.064878815e-08 1.590464854e-05 -1.051809164e-07 2.756074537e-05 )
( 1.794655327e-05 4.914525107e-06 1.409696466e-07 1.090026853e-05 2.781038404e-07 4.464315134e-05 )
( 1.687413896e-05 6.475066584e-06 1.371286658e-07 1.133584556e-05 2.754507307e-07 4.431323032e-05 )
( 1.686632822e-05 6.484518508e-06 1.358705646e-07 1.13719625e-05 2.758620781e-07 4.432241985e-05 )
( 1.797205368e-05 4.871872534e-06 1.408969297e-07 1.089234229e-05 2.778119494e-07 4.464152153e-05 )
( 1.900101415e-05 3.223870863e-06 1.393842552e-07 1.077670731e-05 2.679194893e-07 4.449147309e-05 )
( 1.902113399e-05 3.180537988e-06 1.394682556e-07 1.075783075e-05 2.662579561e-07 4.447025276e-05 )
( 2.025433787e-05 7.402889537e-07 1.758777159e-07 1.091210834e-05 1.665182481e-07 4.32976085e-05 )
( 1.969970253e-05 1.877935574e-06 1.499423945e-07 1.074455213e-05 2.192363269e-07 4.394404823e-05 )
( 1.651764069e-05 6.909364856e-06 8.817640662e-08 1.328780945e-05 2.881004662e-07 4.538388021e-05 )
( 1.611537482e-05 7.394269232e-06 1.173132134e-07 1.217650333e-05 2.694631576e-07 4.423237988e-05 )
( 1.436045295e-05 9.21762512e-06 3.330017151e-08 1.633709689e-05 1.743414941e-07 4.625125439e-05 )
( 1.380904723e-05 9.745295756e-06 2.960273804e-08 1.593013803e-05 1.511959482e-07 4.458388139e-05 )
( 1.522050388e-05 8.370417163e-06 6.129961605e-08 1.456152859e-05 2.433374675e-07 4.526304474e-05 )
( 1.464005072e-05 9.099898307e-06 7.08876513e-08 1.396756124e-05 2.203451999e-07 4.377318692e-05 )
( 1.727873524e-07 3.153322439e-07 -2.874589011e-09 5.776522585e-07 -5.263606884e-09 9.14844918e-07 )
( 5.973034263e-07 1.082923518e-06 -1.009081796e-08 1.97943541e-06 -1.797246973e-08 3.131988706e-06 )
( 4.260144124e-06 7.013178219e-06 -5.965939209e-08 1.232642262e-05 -9.188087802e-08 2.055548066e-05 )
( 5.704021078e-07 1.027499934e-06 -9.872049844e-09 1.866621687e-06 -1.749031142e-08 3.036012913e-06 )
( 1.464608204e-06 2.565542673e-06 -2.419889e-08 4.580579571e-06 -4.104848372e-08 7.516611731e-06 )
( 2.74890408e-06 4.678588539e-06 -4.14449346e-08 8.255878129e-06 -6.614160952e-08 1.35174987e-05 )
( 1.181357675e-05 1.121771493e-05 -1.503504166e-08 1.854942821e-05 3.463581422e-08 4.387995432e-05 )
( 1.16700694e-05 1.124028313e-05 -1.553749662e-08 1.89107086e-05 3.810048099e-08 4.428839384e-05 )
( 1.252170659e-05 1.069212067e-05 -4.909838314e-09 1.731672455e-05 6.860287982e-08 4.374108539e-05 )
( 1.252208767e-05 1.069185055e-05 -4.923187191e-09 1.732010423e-05 6.850975609e-08 4.374947457e-05 )
( 1.188088754e-05 1.112328482e-05 -2.185319659e-08 1.794755008e-05 3.111853175e-08 4.29558022e-05 )
( 7.185324193e-06 1.029449959e-05 -7.706861993e-08 1.750878437e-05 -1.013680162e-07 3.222164742e-05 )
( 7.217295206e-06 1.018347757e-05 -8.075205216e-08 1.706922194e-05 -9.539932222e-08 3.176776227e-05 )
( 8.852598512e-06 1.098414668e-05 -7.920206713e-08 1.763351975e-05 -6.037393518e-08 3.586693128e-05 )
( 8.7387034e-06 1.103766044e-05 -7.871810226e-08 1.802765109e-05 -6.383616125e-08 3.624354576e-05 )
( 7.269042726e-06 1.007192986e-05 -8.691316822e-08 1.656508721e-05 -9.481727403e-08 3.123348506e-05 )
( 5.719748515e-06 8.893654922e-06 -7.297033733e-08 1.539913501e-05 -1.093040822e-07 2.659017082e-05 )
( 5.710001005e-06 8.778684787e-06 -7.365817822e-08 1.501771476e-05 -1.077504521e-07 2.600740117e-05 )