/*--------------------------------*- C++ -*----------------------------------*\
  =========                 |
  \\      /  F ield         | OpenFOAM: The Open Source CFD Toolbox
   \\    /   O peration     | Website:  https://openfoam.org
    \\  /    A nd           | Version:  8
     \\/     M anipulation  |
\*---------------------------------------------------------------------------*/







FoamFile
{
    version     2.0;
    format      ascii;
    class       volVectorField;
    location    "0";
    object      UDDES;
}
// * * * * * * * * * * * * * * * * * * * * * * * * * * * * * * * * * * * * * //

dimensions      [0 1 -1 0 0 0 0];


internalField   nonuniform List<vector> 
8940
(
( -0.003574680071 -0.006671831943 1.997346044e-05 )
( -0.003340051044 -0.006376585923 9.23265543e-06 )
( -0.003674972802 -0.006664240733 2.694639625e-05 )
( -0.003333957633 -0.006365813781 8.893093764e-06 )
( -0.00352790649 -0.006532944739 1.956377673e-05 )
( -0.003761982778 -0.006671188399 3.179872147e-05 )
( -0.003692847211 -0.006685800385 3.064522389e-05 )
( -0.003494211007 -0.006409607828 1.704568967e-05 )
( -0.003105669981 -0.005988280755 -7.907549843e-06 )
( -0.003748346586 -0.006601121277 2.96395483e-05 )
( -0.003756693564 -0.006687151734 3.468836803e-05 )
( -0.003757281695 -0.006687318906 3.469305375e-05 )
( -0.003683056682 -0.006682787556 3.347953316e-05 )
( -0.003613558132 -0.006450460758 2.141373079e-05 )
( -0.003449768294 -0.006209320854 9.214089005e-06 )
( -0.002944703447 -0.005689923186 -2.33566625e-05 )
( -0.00382276997 -0.006599950604 3.372967331e-05 )
( -0.003730376717 -0.006658786442 3.491765165e-05 )
( -0.003824170679 -0.006654270925 3.50797236e-05 )
( -0.00374939735 -0.006629794836 3.520372775e-05 )
( -0.003599215765 -0.006538789254 3.243770698e-05 )
( -0.003719993634 -0.006494463421 2.552689693e-05 )
( -0.003458681051 -0.006213632878 9.646924809e-06 )
( -0.003283396596 -0.005859774537 -1.20373079e-05 )
( -0.00277648028 -0.005361715332 -4.131806782e-05 )
( -0.003900117474 -0.006609433331 3.580931298e-05 )
( -0.003432556055 -0.006174508948 2.864758972e-05 )
( -0.003771709744 -0.006605903618 3.410398131e-05 )
( -0.003866405692 -0.006622474175 3.581957935e-05 )
( -0.003632029053 -0.006450502202 3.215506877e-05 )
( -0.003168615978 -0.005778736435 2.709447108e-05 )
( -0.003899298841 -0.006580692716 3.162384019e-05 )
( -0.003718745429 -0.006351782475 2.079817023e-05 )
( -0.003587843385 -0.005992231425 9.65613026e-07 )
( -0.003132392885 -0.005532401148 -3.248616122e-05 )
( -0.00372422114 -0.006347574294 2.079958176e-05 )
( -0.002612986369 -0.005028429441 -5.721197158e-05 )
( -0.003866910934 -0.006622176152 3.582927457e-05 )
( -0.00315631344 -0.005695808679 2.494278124e-05 )
( -0.003651203355 -0.006421471946 3.129880861e-05 )
( -0.003808453679 -0.00656540459 3.369316983e-05 )
( -0.003161534667 -0.005655031186 2.417013638e-05 )
( -0.002801236929 -0.005130117759 2.260992187e-05 )
( -0.003970798105 -0.006560616195 3.356545858e-05 )
( -0.003726581577 -0.006356858183 2.116816358e-05 )
( -0.003469235962 -0.00567840226 -2.082776155e-05 )
( -0.003880265402 -0.006133528892 1.470217285e-05 )
( -0.002984380815 -0.005189994816 -5.097720714e-05 )
( -0.003888004459 -0.00634819828 2.548384691e-05 )
( -0.002705726074 -0.004516388755 -7.071575965e-05 )
( -0.003825684544 -0.006531720515 3.42213898e-05 )
( -0.003948905971 -0.006562817376 3.57649842e-05 )
( -0.002781719668 -0.005039709155 2.083041181e-05 )
( -0.003164192196 -0.005613094661 2.25243748e-05 )
( -0.003447599942 -0.006022668444 2.56954263e-05 )
( -0.002782208845 -0.005000154488 1.976701969e-05 )
( -0.002337364247 -0.004301168956 1.815741234e-05 )
( -0.003883080557 -0.006482206285 2.957107245e-05 )
( -0.004032359459 -0.006505921949 3.397173714e-05 )
( -0.003338651033 -0.005332530476 -4.001355046e-05 )
( -0.003777376842 -0.005786438007 -8.225696547e-06 )
( -0.003887609346 -0.006135284435 1.494562002e-05 )
( -0.003972633276 -0.00635818392 2.708983811e-05 )
( -0.002501287265 -0.003872874193 -7.285468018e-05 )
( -0.003463875037 -0.004739390686 -5.124898234e-05 )
( -0.003452915465 -0.005971530452 2.527434663e-05 )
( -0.003850036068 -0.006488843355 3.429243952e-05 )
( -0.003966270946 -0.006502790842 3.52275747e-05 )
( -0.002316518221 -0.004213628359 1.654260632e-05 )
( -0.002780315233 -0.004957267549 1.839412835e-05 )
( -0.003146925475 -0.005527105182 2.050102739e-05 )
( -0.002314476995 -0.004178924486 1.638552203e-05 )
( -0.001807023538 -0.00334230205 1.407555283e-05 )
( -0.004046663642 -0.006460614037 3.160945562e-05 )
( -0.003966687247 -0.006502430886 3.521288454e-05 )
( -0.003674417734 -0.005449166987 -2.772252992e-05 )
( -0.004103292245 -0.006183393765 2.067511923e-05 )
( -0.004097995348 -0.006190012675 2.081847742e-05 )
( -0.004049642943 -0.005850273184 2.651432396e-06 )
( -0.004072855692 -0.006344883703 2.671505717e-05 )
( -0.002923039021 -0.003958619665 -6.774038047e-05 )
( -0.002428522101 -0.0035600923 -6.873578241e-05 )
( -0.003908225335 -0.005182268564 -2.975164898e-05 )
( -0.003829912515 -0.004815789871 -4.075695688e-05 )
( -0.00314349751 -0.005472898483 2.019443855e-05 )
( -0.003457840765 -0.00592046231 2.44562616e-05 )
( -0.003879852593 -0.006426130887 3.356730667e-05 )
( -0.001789784408 -0.003267745255 1.303447243e-05 )
( -0.002310853684 -0.004140288103 1.444594091e-05 )
( -0.002755442634 -0.004866855685 1.59877236e-05 )
( -0.001787983812 -0.003241799306 1.220303602e-05 )
( -0.001255578827 -0.002334696939 9.798070096e-06 )
( -0.004103158135 -0.006394146942 3.251855378e-05 )
( -0.003893999849 -0.00637511909 3.323781493e-05 )
( -0.004043783527 -0.006419244222 3.518598533e-05 )
( -0.003985512536 -0.005534048192 -1.477677506e-05 )
( -0.004103593994 -0.006192080211 2.103651059e-05 )
( -0.004246154334 -0.006119897123 2.238276647e-05 )
( -0.004286990035 -0.00590370642 1.307926141e-05 )
( -0.004183382727 -0.006335247308 2.913207572e-05 )
( -0.003707400057 -0.00409513386 -5.291730122e-05 )
( -0.002856159117 -0.003623733297 -6.712123286e-05 )
( -0.002350122435 -0.003010800574 -4.585147326e-05 )
( -0.004219384864 -0.005239845254 -1.786218127e-05 )
( -0.004167562351 -0.004876838997 -2.923476495e-05 )
( -0.002742896089 -0.004810476676 1.531549606e-05 )
( -0.003137539607 -0.005414216314 1.899694689e-05 )
( -0.003444717033 -0.005826257635 2.338848753e-05 )
( -0.001244554296 -0.002279911656 9.066167877e-06 )
( -0.001784949331 -0.003212309442 1.07880951e-05 )
( -0.00228318572 -0.004054680001 1.201235864e-05 )
( -0.001244782936 -0.002264695242 8.184639228e-06 )
( -0.0007252453943 -0.001355582266 5.496940048e-06 )
( -0.004135160241 -0.006343849469 3.368236867e-05 )
( -0.003442740068 -0.005751750432 2.307744398e-05 )
( -0.003909348045 -0.0063126022 3.293708141e-05 )
( -0.004038784187 -0.006325314753 3.437951091e-05 )
( -0.004264771938 -0.005576597527 -3.986694992e-06 )
( -0.004201194737 -0.006254794542 2.662788393e-05 )
( -0.004306912422 -0.006089095026 2.247584234e-05 )
( -0.00429311255 -0.005903529003 1.329828228e-05 )
( -0.004214765504 -0.006265969947 3.01559121e-05 )
( -0.004428461194 -0.004156174604 -3.127178934e-05 )
( -0.004451673478 -0.004536516964 -2.689911889e-05 )
( -0.003658199916 -0.003723120317 -5.718177272e-05 )
( -0.002786329482 -0.003030962776 -4.854502185e-05 )
( -0.00449481653 -0.005259705707 -7.645259757e-06 )
( -0.004475315567 -0.004907249939 -1.857465941e-05 )
( -0.002263064729 -0.003998267464 1.153200083e-05 )
( -0.002727820771 -0.004746578634 1.478741979e-05 )
( -0.003109592944 -0.005306113511 1.828910354e-05 )
( -0.0007196715451 -0.001323175733 4.896752671e-06 )
( -0.001242898288 -0.002246022923 7.161858775e-06 )
( -0.001758043538 -0.003138856962 8.931027878e-06 )
( -0.000721726974 -0.001317098038 4.578470907e-06 )
( -0.0003426909389 -0.000645792461 2.459157713e-06 )
( -0.004039156251 -0.006324673072 3.436991756e-05 )
( -0.003095306223 -0.005224608816 1.796185461e-05 )
( -0.003442080691 -0.005676796194 2.244097777e-05 )
( -0.003925799392 -0.006228859536 3.203161396e-05 )
( -0.004492632113 -0.005567245651 5.188527666e-06 )
( -0.004441498313 -0.005857338663 1.69786781e-05 )
( -0.004436498974 -0.005865717772 1.710007382e-05 )
( -0.004270047881 -0.00621044822 2.705164115e-05 )
( -0.004378812853 -0.006027488969 2.208574551e-05 )
( -0.004215305205 -0.006264850497 3.016057963e-05 )
( -0.0041387151 -0.006235211156 3.295230272e-05 )
( -0.004768171813 -0.00415715063 -1.92829757e-05 )
( -0.004426065367 -0.003767438233 -3.36184421e-05 )
( -0.004761071876 -0.004538390785 -1.620171133e-05 )
( -0.003620450385 -0.003056678455 -4.646123489e-05 )
( -0.004631472286 -0.005533173215 1.084451742e-05 )
( -0.004636814818 -0.005524637643 1.073517342e-05 )
( -0.004720381927 -0.00521906605 5.355706207e-07 )
( -0.00474913884 -0.004899604712 -9.011537259e-06 )
( -0.001734347316 -0.003086826764 8.147077097e-06 )
( -0.002242326271 -0.003934388049 1.079750382e-05 )
( -0.002689801622 -0.004631556105 1.405321837e-05 )
( -0.0003406390315 -0.0006293341285 2.280621175e-06 )
( -0.0007206153241 -0.001307975384 3.8503008e-06 )
( -0.001219696947 -0.002189767314 5.723094546e-06 )
( -0.0003423515882 -0.0006289843004 2.07109224e-06 )
( -0.003940471914 -0.006173522212 3.149257464e-05 )
( -0.002663130173 -0.004543458112 1.340974632e-05 )
( -0.003086906392 -0.005142088979 1.67531889e-05 )
( -0.003428268945 -0.005568651017 2.117842632e-05 )
( -0.00443922868 -0.005864661187 1.721231092e-05 )
( -0.004544269759 -0.005725155585 1.647199861e-05 )
( -0.004290395882 -0.006134262774 2.662607039e-05 )
( -0.004397455137 -0.005979386158 2.176306589e-05 )
( -0.004102917388 -0.006122648716 3.096424552e-05 )
( -0.004103118554 -0.00612212345 3.092977931e-05 )
( -0.003962934949 -0.006104112603 3.075446148e-05 )
( -0.005078745075 -0.004122214392 -5.161837635e-06 )
( -0.005125757307 -0.003735407721 -6.656495771e-06 )
( -0.005177960265 -0.003346900456 -7.684398042e-06 )
( -0.004448310472 -0.003040472511 -2.981873877e-05 )
( -0.005031387787 -0.004495790694 -4.094423275e-06 )
( -0.00463357009 -0.005531886127 1.093909395e-05 )
( -0.004742766265 -0.00537694525 1.080274524e-05 )
( -0.004857713822 -0.005140968598 6.298587778e-06 )
( -0.004973895382 -0.00483226357 1.587586667e-07 )
( -0.001197427395 -0.002147083171 5.573432645e-06 )
( -0.001711948193 -0.003029015614 7.840329999e-06 )
( -0.002199201146 -0.003821499646 1.039974177e-05 )
( -0.0003424008319 -0.0006260107039 1.933909516e-06 )
( -0.0007040520431 -0.001271921559 3.484033414e-06 )
( -0.003434101585 -0.00549678877 2.0651054e-05 )
( -0.002163341735 -0.003730862169 9.555795259e-06 )
( -0.002649733797 -0.004458221607 1.2329524e-05 )
( -0.003066386562 -0.005028161686 1.559187513e-05 )
( -0.00445121713 -0.005843294319 1.937535671e-05 )
( -0.004555397667 -0.005662655458 1.421011257e-05 )
( -0.004172080196 -0.006001835223 2.667894296e-05 )
( -0.004172558431 -0.006000694819 2.66599036e-05 )
( -0.004389739595 -0.005899568088 2.085710912e-05 )
( -0.004272692837 -0.005866471678 2.258567656e-05 )
( -0.003968625329 -0.006009030156 2.837654756e-05 )
( -0.003978906199 -0.005945893005 2.701997437e-05 )
( -0.003437469015 -0.005425374024 1.885196798e-05 )
( -0.005344155245 -0.004045081791 2.554555067e-06 )
( -0.005435347091 -0.003665902652 1.171609938e-06 )
( -0.005524886772 -0.00327586988 -2.830750418e-06 )
( -0.005253406242 -0.002955662552 -7.69556209e-06 )
( -0.005246688612 -0.004394265823 3.124455816e-06 )
( -0.00464960793 -0.005483422428 1.135264392e-05 )
( -0.004774037749 -0.005237375386 7.863811334e-06 )
( -0.00486088451 -0.00513669569 6.383977052e-06 )
( -0.005123295356 -0.004694000352 5.085560588e-06 )
( -0.004920426756 -0.004950669594 4.861043635e-06 )
( -0.00491498271 -0.004961567 4.93888092e-06 )
( -0.0006881215377 -0.001243458362 3.124153181e-06 )
( -0.001177575905 -0.002101326827 5.045636499e-06 )
( -0.001669217134 -0.002928133123 7.42481825e-06 )
( -0.0003323231358 -0.0006060159649 1.710464176e-06 )
( -0.003066710196 -0.004958706908 1.494187291e-05 )
( -0.001630547573 -0.002842591377 6.656846381e-06 )
( -0.002149363747 -0.00365021592 8.601689842e-06 )
( -0.002628622809 -0.004348905291 1.119294211e-05 )
( -0.004447245039 -0.005755798426 1.640972005e-05 )
( -0.004558611661 -0.005594070069 1.128050644e-05 )
( -0.004010144155 -0.005864042789 2.457983828e-05 )
( -0.004030589946 -0.005806663539 2.243228846e-05 )
( -0.004228151869 -0.00571990665 1.830565452e-05 )
( -0.004227842204 -0.005720678251 1.835077455e-05 )
( -0.004049585201 -0.00571201276 1.928273559e-05 )
( -0.003413011786 -0.005306783598 1.635180706e-05 )
( -0.003727096133 -0.005642661825 2.060904626e-05 )
( -0.003062344389 -0.004885111935 1.343473377e-05 )
( -0.005389751866 -0.004209938925 2.181412583e-06 )
( -0.005686489865 -0.003551777685 5.567899848e-07 )
( -0.005826057866 -0.003168464638 -2.196805326e-06 )
( -0.005646249279 -0.00286556338 -5.449927812e-06 )
( -0.00596798351 -0.00278184074 -5.391393188e-06 )
( -0.005124744028 -0.004498540424 7.28472628e-07 )
( -0.005128794815 -0.004486580379 6.39481982e-07 )
( -0.005381984636 -0.004223520402 2.2959332e-06 )
( -0.0046622972 -0.005340546835 7.903388905e-06 )
( -0.004632021766 -0.005204526708 5.689507816e-06 )
( -0.004741540179 -0.005037295166 4.657986665e-06 )
( -0.005007513333 -0.004727202002 2.120738827e-06 )
( -0.0003235486802 -0.0005910400068 1.622517971e-06 )
( -0.0006743918639 -0.001214189921 2.81575899e-06 )
( -0.001140767126 -0.002021233551 4.959046237e-06 )
( -0.002624729648 -0.004285563249 1.072676332e-05 )
( -0.00110694964 -0.001950292033 4.631676347e-06 )
( -0.001620433875 -0.002774687717 6.019077318e-06 )
( -0.002133053262 -0.003556598444 7.917004041e-06 )
( -0.00431357976 -0.00557343848 1.212942061e-05 )
( -0.004313265905 -0.005574898794 1.216163491e-05 )
( -0.004551920574 -0.005406504497 8.469257409e-06 )
( -0.004400387872 -0.005389381666 8.010761121e-06 )
( -0.003401528345 -0.005140478257 1.168952622e-05 )
( -0.003753034864 -0.005493509583 1.582907134e-05 )
( -0.004067975096 -0.005517682992 1.284100563e-05 )
( -0.004052461125 -0.00559266191 1.534330113e-05 )
( -0.00340055069 -0.004957024939 6.215246685e-06 )
( -0.003027210943 -0.004759953357 1.087002238e-05 )
( -0.003008495551 -0.004670889582 8.804817298e-06 )
( -0.002615283476 -0.004215140361 8.884453564e-06 )
( -0.005620219745 -0.00370331062 -8.190494555e-06 )
( -0.005358514376 -0.003962929361 -6.907253464e-06 )
( -0.005353376269 -0.003973309882 -6.629551535e-06 )
( -0.005626398139 -0.003695511725 -8.162432096e-06 )
( -0.005866307765 -0.003373315558 -4.642529348e-06 )
( -0.005875421222 -0.003357511014 -4.709435416e-06 )
( -0.006270529702 -0.002617195016 -8.148494089e-06 )
( -0.006074363366 -0.002993620932 -5.649925697e-06 )
( -0.005122573115 -0.004492421634 5.534436696e-07 )
( -0.005163885653 -0.004220807925 -3.015733682e-06 )
( -0.004629485775 -0.005205218215 5.696043445e-06 )
( -0.004576604348 -0.005024360027 2.849371867e-06 )
( -0.004848922137 -0.004797426984 1.975718988e-06 )
( -0.004774809815 -0.004595251288 -1.693958438e-06 )
( -0.0003165310191 -0.0005767004332 1.368609219e-06 )
( -0.0006487934734 -0.001161855645 2.729704192e-06 )
( -0.00212741713 -0.003503957065 7.312363778e-06 )
( -0.0006262236857 -0.001114371116 2.733185738e-06 )
( -0.001102908514 -0.001901337178 4.278381766e-06 )
( -0.001611992484 -0.002705026418 5.44125578e-06 )
( -0.004128802568 -0.005353841465 6.95737117e-06 )
( -0.004109693691 -0.00542573398 9.31370414e-06 )
( -0.004287390038 -0.005190660246 3.885070782e-06 )
( -0.004287469201 -0.005191744305 3.913194632e-06 )
( -0.004121267702 -0.005217004102 3.446572919e-06 )
( -0.002990540583 -0.004581800196 6.224432582e-06 )
( -0.002974996576 -0.004489956424 3.426947842e-06 )
( -0.003387921024 -0.004735887516 5.25233304e-07 )
( -0.003380932147 -0.004822013434 3.18821003e-06 )
( -0.002965059131 -0.004384303 1.11554732e-06 )
( -0.002574214246 -0.004091342445 7.050914974e-06 )
( -0.002545442432 -0.004001342691 4.853186965e-06 )
( -0.002115629613 -0.003441690002 6.042911082e-06 )
( -0.00549987657 -0.003648440121 -1.679091292e-05 )
( -0.005105995107 -0.004070546478 -6.975053566e-06 )
( -0.005257928278 -0.003835622687 -1.305351179e-05 )
( -0.005673140287 -0.003447071649 -1.677542605e-05 )
( -0.005877933465 -0.00312784221 -1.787456131e-05 )
( -0.006164837629 -0.002808885882 -1.354827145e-05 )
( -0.005883287173 -0.003115934785 -1.812106711e-05 )
( -0.006509317551 -0.002388085239 -1.175423131e-05 )
( -0.006503440905 -0.002396230586 -1.177792365e-05 )
( -0.006171702873 -0.002800713759 -1.34484726e-05 )
( -0.006497900933 -0.002404223662 -1.179236097e-05 )
( -0.004841654096 -0.004410604481 -4.727314263e-06 )
( -0.004855798557 -0.004157889169 -7.650704902e-06 )
( -0.004332825076 -0.004993828014 6.712052709e-07 )
( -0.004333228804 -0.004992422648 6.58662259e-07 )
( -0.004405681044 -0.004767573904 -1.301584575e-06 )
( -0.004405234009 -0.004768971819 -1.284229711e-06 )
( -0.004771085456 -0.00459543569 -1.68567351e-06 )
( -0.004517495632 -0.004560498055 -2.427517757e-06 )
( -0.004657187033 -0.004380104598 -3.725144779e-06 )
( -0.0003022452001 -0.0005482732086 1.244942723e-06 )
( -0.001606845297 -0.002666235669 4.971537237e-06 )
( -0.0002894091886 -0.0005228066584 1.355455083e-06 )
( -0.0006263859104 -0.001086641685 2.713674576e-06 )
( -0.001101739355 -0.001857807976 3.619231848e-06 )
( -0.003404342569 -0.004568448756 -4.090146831e-06 )
( -0.003399427515 -0.004659625702 -1.895794639e-06 )
( -0.004067980684 -0.004938777536 -9.874770512e-07 )
( -0.0040786108 -0.005048526917 4.764303867e-07 )
( -0.003372921608 -0.004427121952 -7.275200005e-06 )
( -0.002515141852 -0.003906288184 2.338570994e-06 )
( -0.002483831486 -0.003805560758 5.388486102e-08 )
( -0.002945557702 -0.004174748901 -3.686800937e-06 )
( -0.002942360239 -0.004252834711 -1.517566943e-06 )
( -0.002469293308 -0.003701674519 -2.296447292e-06 )
( -0.002073195297 -0.003328589024 4.124980023e-06 )
( -0.002037202474 -0.003241567872 2.361714223e-06 )
( -0.00159487722 -0.002616527025 3.916408332e-06 )
( -0.00526315067 -0.003562647384 -1.962122042e-05 )
( -0.005006255116 -0.003885088954 -1.211609651e-05 )
( -0.005092130043 -0.003591602203 -1.687785152e-05 )
( -0.005412598606 -0.003463427536 -2.317401413e-05 )
( -0.005635945126 -0.003295343835 -2.138482705e-05 )
( -0.005920846015 -0.002907320857 -2.50227331e-05 )
( -0.005794529803 -0.002989953384 -2.479902469e-05 )
( -0.006668135524 -0.002137570409 -1.694119783e-05 )
( -0.006503003649 -0.002281059977 -1.833216447e-05 )
( -0.006073399913 -0.002690642374 -2.307304203e-05 )
( -0.006260025781 -0.002535831649 -2.04337266e-05 )
( -0.004723319784 -0.004177331459 -6.657123322e-06 )
( -0.004783751909 -0.003925081342 -1.024618996e-05 )
( -0.004083960317 -0.004808267578 -2.897237209e-06 )
( -0.004103190731 -0.004728720523 -4.243278454e-06 )
( -0.004154184368 -0.004493118729 -5.263617822e-06 )
( -0.004138721153 -0.004591539968 -5.246791716e-06 )
( -0.004362962674 -0.004318304826 -4.620761047e-06 )
( -0.00436305115 -0.00431964267 -4.611982149e-06 )
( -0.004148034379 -0.004342246335 -5.712946404e-06 )
( -0.004460414406 -0.004104733001 -6.116155873e-06 )
( -0.004459803924 -0.004105868749 -6.100721293e-06 )
( -0.001098165521 -0.001833548537 2.92725872e-06 )
( -0.0002917584497 -0.0005107822362 1.374695671e-06 )
( -0.000629098271 -0.001065374352 2.090793032e-06 )
( -0.00294138398 -0.004009204451 -7.633843779e-06 )
( -0.002947655274 -0.004099819809 -5.711661288e-06 )
( -0.003265560139 -0.00409403583 -9.93845606e-06 )
( -0.003299531527 -0.004231261089 -8.663141671e-06 )
( -0.002900172956 -0.0038655221 -9.794977814e-06 )
( -0.001998298569 -0.003145831637 1.145799615e-07 )
( -0.001955626532 -0.003041161923 -1.909848606e-06 )
( -0.002451903187 -0.003518410027 -6.109387868e-06 )
( -0.002450473141 -0.003584669903 -4.330811862e-06 )
( -0.001941554132 -0.002946788445 -3.653671456e-06 )
( -0.001554777846 -0.002520900685 2.813846777e-06 )
( -0.001516552526 -0.002442811616 1.043643238e-06 )
( -0.001087302924 -0.001797907753 2.337208116e-06 )
( -0.005121052265 -0.003275411204 -2.171630877e-05 )
( -0.004846651107 -0.003637770191 -1.406248612e-05 )
( -0.004840438254 -0.003314136062 -1.812978007e-05 )
( -0.005319927819 -0.003223996609 -2.398455217e-05 )
( -0.005543529522 -0.003097767942 -2.68447202e-05 )
( -0.005859028082 -0.002623017412 -2.910794683e-05 )
( -0.005651421845 -0.002753631445 -2.75628754e-05 )
( -0.006684992462 -0.001962662442 -2.822382339e-05 )
( -0.006512321532 -0.002089672256 -2.888303061e-05 )
( -0.006037941203 -0.002467609011 -3.010643195e-05 )
( -0.006254941225 -0.00228084228 -2.912498712e-05 )
( -0.004548365716 -0.003886133898 -8.994428754e-06 )
( -0.004548416939 -0.00388455065 -9.010372196e-06 )
( -0.004551246762 -0.003597876523 -1.200166298e-05 )
( -0.004551048856 -0.0035963275 -1.201867053e-05 )
( -0.003259603167 -0.003986861091 -1.040182906e-05 )
( -0.003275575582 -0.00390006206 -1.180813797e-05 )
( -0.003286343301 -0.003688006662 -1.195525783e-05 )
( -0.003282978665 -0.003797968151 -1.234739193e-05 )
( -0.004088497721 -0.004039469641 -6.952768217e-06 )
( -0.004090709612 -0.004151565023 -6.231595762e-06 )
( -0.003256742377 -0.003541572252 -1.210275514e-05 )
( -0.004173580091 -0.003826303408 -7.945527614e-06 )
( -0.004134824499 -0.003905485151 -7.306325188e-06 )
( -0.0006271494785 -0.001053284155 1.563814976e-06 )
( -0.000294264144 -0.0005027846782 1.099769634e-06 )
( -0.002430428052 -0.003360798815 -9.18929527e-06 )
( -0.002446878003 -0.003448091215 -7.669904335e-06 )
( -0.002772592241 -0.003533162642 -1.172829616e-05 )
( -0.002816425171 -0.003668576013 -1.152285586e-05 )
( -0.00238288031 -0.003223896725 -1.099849942e-05 )
( -0.001474895747 -0.002354105236 -8.128109812e-07 )
( -0.001428723917 -0.002254514256 -2.309242973e-06 )
( -0.001933438587 -0.002803567331 -6.669155482e-06 )
( -0.001931747538 -0.002854275284 -5.318706826e-06 )
( -0.001419770997 -0.002177591203 -3.698865157e-06 )
( -0.00105328497 -0.001725103473 1.590630518e-06 )
( -0.00101905223 -0.001662251889 4.488839522e-07 )
( -0.0006189891137 -0.001031981665 1.169281063e-06 )
( -0.004830641672 -0.002965300111 -2.201267125e-05 )
( -0.00483146403 -0.002963635372 -2.202380711e-05 )
( -0.004580302164 -0.003322019475 -1.567713844e-05 )
( -0.004579665139 -0.003323332407 -1.566090032e-05 )
( -0.004416718613 -0.002996349474 -1.825757863e-05 )
( -0.00509967003 -0.002917659935 -2.424849481e-05 )
( -0.005384357646 -0.002858498599 -2.627222784e-05 )
( -0.005741620436 -0.002408201108 -2.955707896e-05 )
( -0.005422239657 -0.0024891824 -2.762561962e-05 )
( -0.006678802893 -0.001837178366 -3.135895895e-05 )
( -0.006468172651 -0.002013370395 -3.172330253e-05 )
( -0.005978293717 -0.002273403574 -3.116720472e-05 )
( -0.006228162907 -0.002171374857 -3.200550782e-05 )
( -0.00422043819 -0.003700430272 -9.508176845e-06 )
( -0.004234526772 -0.003604789032 -1.025377787e-05 )
( -0.004225028679 -0.003427260555 -1.189196155e-05 )
( -0.004223747179 -0.003315382637 -1.323853849e-05 )
( -0.002764448524 -0.003431890626 -1.250445985e-05 )
( -0.002779752715 -0.003356737085 -1.356266966e-05 )
( -0.00277573918 -0.003163512098 -1.383791005e-05 )
( -0.0027817511 -0.003263908904 -1.361511204e-05 )
( -0.003161636181 -0.00321668922 -1.167423125e-05 )
( -0.003175898921 -0.003342939075 -1.171288932e-05 )
( -0.002738161013 -0.003022948746 -1.389103636e-05 )
( -0.003225186141 -0.003049476538 -1.184168468e-05 )
( -0.003184260102 -0.0031258706 -1.14075483e-05 )
( -0.0002935687371 -0.000498114503 7.452378554e-07 )
( -0.001899420517 -0.002661679871 -8.770307431e-06 )
( -0.001923564239 -0.002741637174 -7.813093362e-06 )
( -0.002245421987 -0.002906498034 -1.236170465e-05 )
( -0.002294866601 -0.003036263399 -1.168460949e-05 )
( -0.001849939697 -0.002539796289 -9.906038031e-06 )
( -0.0009817830287 -0.001589567983 -1.016454576e-06 )
( -0.000941254897 -0.001506498549 -2.162139708e-06 )
( -0.001423326554 -0.002081281506 -5.728921678e-06 )
( -0.001420570188 -0.002114974428 -4.866280506e-06 )
( -0.0009392324137 -0.001452199882 -2.974543349e-06 )
( -0.0005953100626 -0.000985538587 7.591530675e-07 )
( -0.0005712375278 -0.0009441967122 1.170617736e-07 )
( -0.0002892160846 -0.000487968151 6.514499091e-07 )
( -0.003960613627 -0.002544443356 -1.977008651e-05 )
( -0.004020478576 -0.002428072505 -2.091706665e-05 )
( -0.004283868242 -0.003083840944 -1.648643956e-05 )
( -0.004238070454 -0.003167461837 -1.515634813e-05 )
( -0.003367616097 -0.002309950069 -1.885879101e-05 )
( -0.005130376667 -0.002547021955 -2.570464312e-05 )
( -0.004162997939 -0.002331161872 -2.225940807e-05 )
( -0.005131502636 -0.00254536001 -2.571211371e-05 )
( -0.005527257919 -0.002136312425 -2.89720665e-05 )
( -0.005528582726 -0.00213514315 -2.897885679e-05 )
( -0.004523837473 -0.001951121842 -2.443858102e-05 )
( -0.006607686169 -0.001680820831 -3.102874325e-05 )
( -0.006356565747 -0.001815044787 -3.177070539e-05 )
( -0.005823573098 -0.002064450178 -3.012674279e-05 )
( -0.006087504793 -0.001967625925 -3.081892646e-05 )
( -0.003243068 -0.002950074617 -1.257200347e-05 )
( -0.003245356958 -0.002835639752 -1.322416028e-05 )
( -0.003204925917 -0.002687419299 -1.448778312e-05 )
( -0.003200757084 -0.00256208051 -1.58701805e-05 )
( -0.002239415422 -0.002817100147 -1.266075742e-05 )
( -0.002256655134 -0.002758439397 -1.348052956e-05 )
( -0.002242150484 -0.002591052791 -1.361582963e-05 )
( -0.002256277716 -0.00267989072 -1.391791739e-05 )
( -0.002629115479 -0.002714355476 -1.298846382e-05 )
( -0.002647768939 -0.002829966368 -1.345099554e-05 )
( -0.002198707778 -0.002463057637 -1.416934629e-05 )
( -0.002688648645 -0.002574830782 -1.269231871e-05 )
( -0.002651668852 -0.002637813333 -1.239198536e-05 )
( -0.001382514602 -0.001962027047 -7.247884696e-06 )
( -0.001410587225 -0.002030638512 -6.700348422e-06 )
( -0.001715124585 -0.002253510058 -1.0955162e-05 )
( -0.001764488639 -0.002371424809 -1.072912528e-05 )
( -0.001335811685 -0.001861618133 -8.094827535e-06 )
( -0.0005451632896 -0.0008958817925 -7.503516031e-07 )
( -0.0005178483552 -0.000839961227 -1.334654485e-06 )
( -0.0009508412331 -0.001399656641 -4.395673386e-06 )
( -0.0009477729909 -0.001418194617 -3.666793191e-06 )
( -0.0005199343432 -0.0008096833481 -1.742517384e-06 )
( -0.0002755053865 -0.0004628215684 4.27951079e-07 )
( -0.0002624465851 -0.0004413491988 -1.731237376e-09 )
( -0.00338664325 -0.002182013588 -1.955449807e-05 )
( -0.003443621099 -0.00207547145 -2.008034971e-05 )
( -0.00327345822 -0.002376034856 -1.803357918e-05 )
( -0.003224605229 -0.002456173999 -1.697840526e-05 )
( -0.002781773917 -0.001915782574 -1.826343578e-05 )
( -0.004265727941 -0.002195697278 -2.279458022e-05 )
( -0.003592521884 -0.002005324233 -2.112879156e-05 )
( -0.004352296237 -0.002067476977 -2.341296931e-05 )
( -0.004696623888 -0.001815658761 -2.507837235e-05 )
( -0.004876413383 -0.001708104042 -2.572123412e-05 )
( -0.003954119049 -0.00167048478 -2.269420293e-05 )
( -0.006445545703 -0.00145881006 -3.196038961e-05 )
( -0.00583488727 -0.001368061407 -2.974306153e-05 )
( -0.005134582985 -0.001614596229 -2.664598287e-05 )
( -0.005465563852 -0.001502133324 -2.799992762e-05 )
( -0.002697901102 -0.00248444872 -1.308292121e-05 )
( -0.002688820707 -0.002377425786 -1.394012634e-05 )
( -0.002632954624 -0.002232702449 -1.469965537e-05 )
( -0.002627763432 -0.002121510683 -1.598340714e-05 )
( -0.001715712133 -0.002181966789 -1.157818406e-05 )
( -0.001736452105 -0.002143018181 -1.224952484e-05 )
( -0.001715148799 -0.002007015981 -1.230784619e-05 )
( -0.001735427999 -0.002082253341 -1.225713368e-05 )
( -0.002084993292 -0.00218188134 -1.275197064e-05 )
( -0.002104614861 -0.002283765003 -1.320885531e-05 )
( -0.001669043559 -0.001896860427 -1.219132264e-05 )
( -0.002144840546 -0.002075725934 -1.222633546e-05 )
( -0.002111178124 -0.002123515122 -1.223547588e-05 )
( -0.0009103507618 -0.001308465144 -5.308173513e-06 )
( -0.0009373390931 -0.001361844479 -4.776676178e-06 )
( -0.001217460493 -0.001622057753 -8.585486285e-06 )
( -0.001259782934 -0.001721202629 -8.311690181e-06 )
( -0.0008713711286 -0.001233943854 -5.700990187e-06 )
( -0.0002485121367 -0.0004158454249 -3.248239011e-07 )
( -0.0002325707173 -0.0003854142851 -6.291942896e-07 )
( -0.000532571692 -0.0007889571716 -2.557286052e-06 )
( -0.0005304447841 -0.0007965540281 -2.179551075e-06 )
( -0.0002365079126 -0.0003722359834 -7.527326034e-07 )
( -0.002776794834 -0.001794348471 -1.819789759e-05 )
( -0.002830203623 -0.00170167326 -1.860218254e-05 )
( -0.002706745407 -0.001971426653 -1.729747964e-05 )
( -0.002660529222 -0.002036996651 -1.666387652e-05 )
( -0.002193541965 -0.001515608979 -1.622757918e-05 )
( -0.003699461697 -0.001887021237 -2.153057176e-05 )
( -0.002983913291 -0.0016566962 -1.96065248e-05 )
( -0.003779915627 -0.001767888316 -2.179452349e-05 )
( -0.004148349632 -0.001551325084 -2.325878268e-05 )
( -0.004360521212 -0.001448037801 -2.381536433e-05 )
( -0.003331020009 -0.001376113389 -2.121947182e-05 )
( -0.005853972398 -0.0009980025934 -2.714490256e-05 )
( -0.005436515901 -0.001127880649 -2.645005043e-05 )
( -0.004636972211 -0.001360974391 -2.417621727e-05 )
( -0.005006967578 -0.00125151081 -2.536952161e-05 )
( -0.002146831015 -0.001997781917 -1.269848781e-05 )
( -0.002126484876 -0.001901466167 -1.320166848e-05 )
( -0.002058769343 -0.001765914029 -1.371993221e-05 )
( -0.002054657554 -0.001671728212 -1.443423116e-05 )
( -0.001226724358 -0.001572416746 -8.838899703e-06 )
( -0.001250231871 -0.001553285401 -9.214127203e-06 )
( -0.001224573352 -0.001450200798 -9.407739526e-06 )
( -0.001248527318 -0.001510561444 -9.480311746e-06 )
( -0.001561409095 -0.001653574524 -1.119112494e-05 )
( -0.001577922492 -0.001738493796 -1.168135896e-05 )
( -0.001179756713 -0.001361278351 -9.624290215e-06 )
( -0.001623898163 -0.001584212296 -1.098817393e-05 )
( -0.001593330526 -0.001615922316 -1.095914831e-05 )
( -0.0005014885683 -0.0007306847256 -2.975220923e-06 )
( -0.0005216207937 -0.0007651054766 -2.829417099e-06 )
( -0.0007813313277 -0.00105385785 -5.792930097e-06 )
( -0.0008113456424 -0.001128035714 -5.884551229e-06 )
( -0.0004751000379 -0.0006845835596 -3.316172297e-06 )