/*--------------------------------*- C++ -*----------------------------------*\
  =========                 |
  \\      /  F ield         | OpenFOAM: The Open Source CFD Toolbox
   \\    /   O peration     | Website:  https://openfoam.org
    \\  /    A nd           | Version:  8
     \\/     M anipulation  |
\*---------------------------------------------------------------------------*/






FoamFile
{
    version     2.0;
    format      ascii;
    class       volScalarField;
    location    "0";
    object      pDDES;
}
// * * * * * * * * * * * * * * * * * * * * * * * * * * * * * * * * * * * * * //

dimensions      [0 2 -2 0 0 0 0];


internalField   nonuniform List<scalar> 
24767
(
0.002676175907
0.002676167758
0.002676542383
0.002676137723
0.002676521195
0.002676929347
0.00267609721
0.002676502336
0.002676924691
0.002677350771
0.002676022006
0.002676465781
0.002676910488
0.00267734006
0.002677810378
0.002675884403
0.002676393371
0.002676885575
0.00267733261
0.002677800367
0.002678291872
0.002675641794
0.002676258562
0.002676830627
0.002677320037
0.002677784767
0.002678282559
0.002678774763
0.002675255528
0.002676022705
0.002676720032
0.002677284414
0.002677757293
0.002678267192
0.002678761957
0.002679284662
0.002674689516
0.002675643889
0.002676512348
0.002677194774
0.002677699784
0.002678240649
0.002678750316
0.002679267665
0.002679795492
0.002673975425
0.002675082535
0.002676162403
0.002677010372
0.002677588025
0.00267818803
0.00267873425
0.002679246245
0.002679780591
0.00268029701
0.00267377682
0.002674333751
0.002675625961
0.002676685341
0.002677382901
0.002678084187
0.002678696066
0.002679213416
0.002679755678
0.002680276288
0.00268083578
0.002673934447
0.00267296331
0.002674870193
0.0026761794
0.002677042037
0.002677890006
0.002678606426
0.002679151483
0.002679722849
0.002680255566
0.002680813894
0.002681377577
0.002673732117
0.00267317961
0.002671370748
0.00267550745
0.002676520729
0.002677557059
0.002678424818
0.002679036232
0.002679665107
0.002680231584
0.002680783859
0.002681360114
0.002681868151
0.002673787996
0.002675027121
0.002672695322
0.00267189648
0.002669058507
0.002675818978
0.00267704227
0.002678107237
0.002678832272
0.002679557772
0.002680187812
0.002680741018
0.002681324491
0.002681845333
0.002682347782
0.002675310709
0.00267449487
0.002672265284
0.002671591938
0.002669330221
0.002667152556
0.002676283475
0.00267760735
0.002678497229
0.002679365687
0.002680098172
0.002680671401
0.002681270707
0.0026818146
0.002682326362
0.002682839055
0.002675639
0.002672208473
0.002674543299
0.002670932794
0.002669472015
0.002666925779
0.002663215855
0.002676962875
0.002677988261
0.002679044148
0.002679919824
0.002680543344
0.002681181068
0.002681770595
0.002682300285
0.002682810649
0.002683215309
0.002676772885
0.002675646218
0.002670152811
0.002672430128
0.002674653428
0.002669374924
0.002666870598
0.002663054504
0.002659969497
0.002677301876
0.002678544726
0.002679611323
0.002680322388
0.002681027167
0.002681693994
0.002682264196
0.00268277037
0.002683213446
0.002683358733
0.002676588017
0.002675367519
0.002670382848
0.002672458068
0.002674261341
0.002667187015
0.002663427731
0.002660118509
0.002677830402
0.00267912331
0.002679964295
0.00268077082
0.002681553597
0.002682198305
0.002682714257
0.002683168277
0.002683340106
0.002683476778
0.002676683944
0.002675495576
0.002669445239
0.002672534203
0.002673330251
0.002666205168
0.002664495725
0.002659879159
0.002678469056
0.002679437865
0.002680379432
0.002681314712
0.002682071179
0.002682622289
0.002683107508
0.002683324507
0.002683473518
0.002683657221
0.002677987795
0.002676811535
0.002675117925
0.00266950042
0.002673272043
0.002675153315
0.002666098997
0.002660677768
0.002678735182
0.002679818776
0.002680934966
0.002681843936
0.002682462335
0.002683010651
0.002683290513
0.002683462575
0.002683653962
0.002683859784
0.002678186633
0.002677035052
0.002669485752
0.002675526077
0.002672720235
0.00267553702
0.002677058801
0.002669472247
0.002665771171
0.002661002101
0.002679093275
0.002680385252
0.002681475598
0.002682201797
0.002682853723
0.002683229744
0.002683436032
0.00268364558
0.002683852334
0.002684100298
0.002678423887
0.002675997559
0.002677039709
0.002671996132
0.002677396405
0.002678387798
0.00267095631
0.002665868727
0.002661331557
0.002679643687
0.002680933569
0.002681806218
0.00268260017
0.002683111234
0.002683373168
0.00268362253
0.002683849074
0.002684094245
0.002684361534
0.002675566124
0.002677832497
0.002677619457
0.002678266494
0.002678568941
0.002679734956
0.002670522314
0.002674246673
0.002674574265
0.002664969303
0.00265673059
0.002661402337
0.002680246718
0.002681240905
0.002682213439
0.002682900289
0.002683253726
0.002683573402
0.002683837665
0.002684081439
0.002684352687
0.002684623236
0.002677342854
0.002677493263
0.002679545432
0.002679149155
0.002679642988
0.002679758472
0.002680520527
0.002670039888
0.002673800336
0.002673372859
0.002677512821
0.002677846933
0.002663264517
0.002656385768
0.002681659302
0.002682557795
0.002683043247
0.002683471888
0.002683806233
0.002684058156
0.002684340812
0.002684615087
0.002684923355
0.002678481163
0.002678909339
0.00268079387
0.002680525417
0.002680886304
0.002680923091
0.002668462927
0.00267271488
0.002673130017
0.002677143784
0.002676066477
0.002679457888
0.002679357771
0.002679719357
0.002679495607
0.002667795634
0.002662360668
0.002656108234
0.002682043705
0.002682704944
0.002683283528
0.002683727536
0.00268400996
0.002684317064
0.002684603445
0.00268490985
0.002685230691
0.002679899568
0.002680342877
0.00268186396
0.00268168794
0.002681566402
0.002681388287
0.002673410112
0.00267454912
0.002675455529
0.002679338213
0.002679021098
0.002679117955
0.002681200393
0.002681053942
0.002681254176
0.002681117039
0.002672344679
0.002666976303
0.002666251967
0.002661036793
0.002655373421
0.002682207152
0.002682973631
0.002683564322
0.00268391287
0.002684272826
0.002684589475
0.002684893087
0.002685222309
0.002685507992
0.00268136384
0.002681605518
0.002682505175
0.002682224382
0.002682380844
0.00267663761
0.002676181961
0.002677560784
0.002678385004
0.002681036247
0.002680365462
0.002680369187
0.002680707024
0.002682049992
0.002682129387
0.00268236734
0.002682325663
0.002674788935
0.002671569353
0.002675435971
0.00266992487
0.002665217966
0.002664232161
0.002659646096
0.002654189244
0.002683279803
0.002683735685
0.002684183652
0.002684559207
0.002684864681
0.002685197862
0.002685495419
0.002685785061
0.002682431368
0.002682683524
0.002682834398
0.002682990395
0.002679893281
0.002679098165
0.002679671859
0.002679965459
0.002680209698
0.002680278616
0.002681733342
0.002681445098
0.002681908431
0.002682458842
0.002683145925
0.002683321945
0.002683186671
0.002683491912
0.002674374729
0.002677302808
0.002673800569
0.00267847185
0.002673970303
0.002668844536
0.0026669621
0.002662953921
0.002662477549
0.002657609526
0.002652665367
0.002683440456
0.002684019972
0.002684486331
0.002684812527
0.002685159445
0.002685475396
0.002685774583
0.002686074469
0.002683016006
0.002683075378
0.002683312632
0.002681446262
0.002681090264
0.002681076759
0.002680742182
0.00268084323
0.002681746613
0.002681944054
0.002681968734
0.002682858147
0.002682622056
0.002683161292
0.002683670726
0.002684304258
0.002683899831
0.002684045583
0.002683866769
0.002684217412
0.002676530043
0.002679926343
0.002675468335
0.002680474659
0.002680058824
0.002672450151
0.002676094649
0.002676763339
0.002670751186
0.002665183041
0.002663803287
0.002660935279
0.002660040976
0.002654817421
0.002650915645
0.002683744067
0.002684337087
0.002684707986
0.002685089596
0.002685444895
0.002685760846
0.002686060499
0.002686352469
0.002683644649
0.00268372125
0.002682117047
0.002683085157
0.002682564314
0.00268225302
0.002682412975
0.002682406455
0.002682869323
0.002682828577
0.002683930798
0.002683814848
0.002684148261
0.002684802283
0.002684579231
0.002685003681
0.002684568055
0.002684713807
0.00268438505
0.002684729174
0.002678974997
0.002680854639
0.00268132193
0.00268122647
0.00267794542
0.002681930549
0.002675190102
0.002674501156
0.002678520512
0.002679544501
0.002669007517
0.002672536764
0.002673373325
0.002667619381
0.002662376501
0.002659277525
0.002661227249
0.002652606461
0.00264901598
0.00268407329
0.002684516367
0.002684962004
0.002685386688
0.002685734769
0.002686035819
0.002686336869
0.002686599502
0.002684199717
0.00268324744
0.002684196224
0.002683729865
0.002682907972
0.002683367115
0.002683514729
0.002683988074
0.002683850005
0.002684588544
0.002684619743
0.002684895415
0.002684811363
0.002685468178
0.002685283078
0.002685510088
0.002685068175
0.002685227897
0.002684738021
0.002685069107
0.002680551494
0.002680446021
0.002682220191
0.002682151739
0.002682865597
0.002679600846
0.002680001315
0.002682551974
0.002677720971
0.002676844131
0.002679821104
0.002680080011
0.002680829028
0.002680749632
0.002680451609
0.00267191045
0.002671448514
0.002674646908
0.002675631549
0.002665931359
0.002669754904
0.00267056725
0.00265639904
0.002661215374
0.002662538318
0.002664055675
0.002650309587
0.002647026442
0.002685274929
0.002685687039
0.002685996704
0.002686309163
0.002686573425
0.002686775755
0.002684352687
0.002685223473
0.002684706356
0.002683841856
0.002684409032
0.002684503328
0.002684806008
0.002684999723
0.002685278421
0.002685297746
0.002685597632
0.002685486339
0.002685948275
0.00268578832
0.002685851883
0.002685393672
0.00268557854
0.0026820614
0.002681905404
0.002683231607
0.002683173399
0.002683894942
0.002681473736
0.002683450701
0.002679408528
0.002679036697
0.002678123768
0.002678615507
0.002681102371
0.0026813976
0.002681569196
0.002682119375
0.002681768499
0.00267411652
0.00267355633
0.002676583128
0.002677859506
0.002668946749
0.002668165835
0.002671909286
0.002672686707
0.002653750358
0.002658305224
0.002659567865
0.002663950669
0.002665614942
0.002667676192
0.002648006193
0.002644978929
0.002685586456
0.002685925458
0.002686266322
0.002686543157
0.002686766442
0.002686764114
0.002685084473
0.00268533593
0.002685845597
0.002685311018
0.002684680512
0.002685379935
0.002685162239
0.002685105894
0.002685479121
0.002685659099
0.002685822779
0.002685833955
0.002686063759
0.002685984131
0.002686274704
0.002686123131
0.002686068648
0.002685797866
0.002682822291
0.002682576654
0.002683995524
0.00268417201
0.002684887964
0.002682005987
0.002684326377
0.00268067373
0.002680375241
0.002679101191
0.002679875121
0.0026814905
0.002682046033
0.002682417165
0.002682989929
0.002682642313
0.002675577765
0.002674667398
0.002677717945
0.002678052057
0.002678974997
0.002678574296
0.002670925576
0.002669729991
0.002672870411
0.002673842479
0.002655457007
0.002656689147
0.002651157789
0.002660788363
0.002662373241
0.002665401204
0.002666120883
0.002667870838
0.002667109016
0.002668897621
0.002669631038
0.002645726316
0.002642932814
0.002686195541
0.002686507301
0.002686727792
0.002686750842
0.002686670749
0.002685717074
0.002685955027
0.002686310094
0.002685889835
0.002685399959
0.002685238607
0.002685971325
0.002685814165
0.002685729647
0.002685984131
0.002686121268
0.002686200198
0.002686210442
0.002686352236
0.002686307067
0.002686466556
0.002686329186
0.002683718223
0.00268343091
0.002684757579
0.002684546169
0.002684889361
0.002685450716
0.002682898194
0.002684997395
0.002681121696
0.002680787584
0.002679764526
0.002680458128
0.002682097955
0.002682616003
0.002683231141
0.002683673287
0.002683606464
0.002677062294
0.002676541219
0.002675635274
0.002676026896
0.002678784309
0.002679296536
0.002679976868
0.002679581521
0.002671954921
0.002670878312
0.002673775889
0.002674276475
0.002675298369
0.002674861811
0.00265775295
0.002653879113
0.002659271238
0.002648650436
0.002652690746
0.002662103623
0.002662789077
0.002664440544
0.002663738793
0.00266710599
0.002667983994
0.002669758629
0.002668844536
0.002670637332
0.002671636408
0.002686445136
0.002686676104
0.002686724532
0.002686662599
0.002686642576
0.002686205786
0.002686405089
0.002686621621
0.002686347347
0.002686036052
0.002685832791
0.002686407184
0.002686255146
0.002686203457
0.00268631964
0.002686421387
0.002686443273
0.002686453518
0.002686512889
0.002686492167
0.002686574124
0.002684388775
0.002684410661
0.002685387619
0.002685123822
0.00268547656
0.002685851883
0.002683633007
0.002685618121
0.00268177106
0.002681541257
0.00268054381
0.002681240439
0.002682780847
0.002683433238
0.002683147322
0.00268385699
0.002684249077
0.002684180858
0.002678259043
0.002677828539
0.00267697894
0.002677306533
0.002679524943
0.002679970814
0.00268068444
0.002680392005
0.002673305105
0.002672786824
0.002672606613
0.002675144002
0.002675543074
0.002676581265
0.002676321659
0.002658972982
0.002659614664
0.002656299388
0.002661182778
0.002660515718
0.00264624157
0.002650071401
0.002651187126
0.002654843032
0.002663688269
0.002664548578
0.002666266169
0.002665387699
0.002667961176
0.002668397035
0.002669266425
0.002668835223
0.002670841524
0.002670533955
0.002669689246
0.00267010415
0.002671307418
0.002671869239
0.002672812203
0.002672487171
0.002686591586
0.002686680295
0.002686652821
0.002686637454
0.002686680062
0.002686539665
0.002686697757
0.002686811145
0.002686661202
0.002686460968
0.002686288208
0.002686704742
0.002686528489
0.002686511027
0.002686521504
0.002686597174
0.002686598105
0.002686589723
0.002686591353
0.002686628141
0.00268496084
0.002684958279
0.002684346633
0.002685779938
0.002685552463
0.002685931977
0.002686121501
0.002684144303
0.002686090302
0.002682471881
0.002682239283
0.002681147307
0.002682134975
0.002683388069
0.002684063045
0.002683705185
0.002684442559
0.002684697974
0.00268458575
0.002678775461
0.002678568475
0.002677790588
0.002678208053
0.002679894445
0.002680799691
0.002681208076
0.002680951031
0.002674513729
0.002673812676
0.00267330301
0.002673845738
0.002675922122
0.002676533069
0.002677569166
0.002677209675
0.002660459373
0.002658100566
0.002661248203
0.002657476347
0.002662878949
0.002662037499
0.002647582442
0.002648644615
0.002652083058
0.002653455362
0.002656012075
0.002656621393
0.002664485481
0.002664911794
0.002665779786
0.002665350679
0.002667527646
0.002667095978
0.002666216111
0.002666651271
0.002668828005
0.002669201232
0.002670085058
0.002669717418
0.002671795199
0.002671445254
0.002670592861
0.002670958638
0.002672170755
0.002672943752
0.002673684619
0.002673311159
0.002686633961
0.002686669584
0.002686737338
0.002686743857
0.002686872613
0.002686915221
0.002686858177
0.002686735708
0.002686589491
0.002686895896
0.002686682157
0.002686696593
0.00268663466
0.002686689608
0.002686623018
0.002686638851
0.002685395302
0.002685346175
0.002684929641
0.002686022781
0.002685832558
0.002686240477
0.002686279593
0.002684684005
0.002686406719
0.002683083527
0.002682809252
0.002681580139
0.002681883518
0.002682637423
0.002683821134
0.002684447914
0.002684113104
0.0026848868
0.002685008571
0.002684866078
0.002679471858
0.002679062076
0.002678459045
0.002678782213
0.002680643927
0.002680301433
0.002681232058
0.002681718441
0.002681426238
0.002675506752
0.00267471699
0.002674105112
0.00267461082
0.002676520729
0.002677026205
0.002678168705
0.00267777429
0.00266122329
0.002661599778
0.002659697318
0.002662390703
0.002661998849
0.002658931538
0.002664066153
0.002663654275
0.0026628091
0.002663220745
0.002649509115
0.002650786657
0.00265320274
0.002653778065
0.002655181335
0.002654588316
0.002657455392
0.002658201847
0.002665325766
0.002665692475
0.002666566987
0.002666201675
0.002668313216
0.002667947905
0.00266707316
0.002667439403
0.002669071313
0.002669527428
0.002670411486
0.002669963986
0.002672134899
0.002671691123
0.002670839429
0.002671279246
0.002672705799
0.002673539333
0.002674313262
0.002673993353
0.002686658874
0.002686732216
0.002686775755
0.002686860738
0.002686966443
0.002686969237
0.002686975757
0.002686905907
0.002686775988
0.002687009517
0.002686758293
0.002686798107
0.00268669147
0.00268673501
0.002685689367
0.002685607178
0.002685298212
0.002686162014
0.002685998566
0.002686428139
0.002686365042
0.002685086569
0.002686598804
0.002683525905
0.002683232771
0.002682053484
0.002682431834
0.002683000173
0.002684101462
0.002684694715
0.002684376901
0.002685186919
0.00268520508
0.002685043495
0.002679693047
0.002679426689
0.002678842982
0.002679128433
0.002681009006
0.002680609003
0.00268155965
0.002682112623
0.002681808313
0.002675906289
0.002675317694
0.002674776595
0.002675265307
0.002676785458
0.002677254844
0.002678510267
0.002678188728
0.002662027953
0.002660826081
0.002662360901
0.002660440514
0.002663165797
0.00266281236
0.002659682184
0.002660054481
0.002664829604
0.002664475702
0.002663629595
0.00266398862
0.00265059201
0.002651120536
0.002652423922
0.002651872113
0.002654632553
0.002655335935
0.002656748751
0.002656022087
0.002658207202
0.002658567159
0.00265930919
0.002658942249
0.00266556628
0.002666009357
0.002666885033
0.002666439861
0.002668632427
0.002668184694
0.002667312743
0.002667755587
0.002669527195
0.002669995651
0.002670871094
0.002670422895
0.002672480652
0.002672055038
0.002671268769
0.002671692986
0.002672948875
0.002674174029
0.002674844582
0.002674437594
0.002686718246
0.002686767373
0.00268682465
0.002686922438
0.002687014872
0.002686998341
0.002687040484
0.00268700649
0.002686884953
0.002687076107
0.002686792985
0.002686848165
0.002686757129
0.002685871208
0.002685763873
0.002685526386
0.002686229302
0.002686088439
0.002686528023
0.002686404623
0.002685350133
0.002686705906
0.002683812287
0.002683510771
0.002682422288
0.002682771068
0.002683238126
0.002684267238
0.002684850246
0.002684536856
0.002685372951
0.002685318701
0.002685147803
0.0026802395
0.002679862315
0.002679154975
0.00267947698
0.002681327285
0.002680974314
0.002681793179
0.002682378981
0.002682074439
0.002676303266
0.002675709315
0.002675347496
0.002675821306
0.002677044831
0.002677734708
0.002677396871
0.002678791992
0.002678444376
0.002662257757
0.002661567181
0.002662663814
0.002661237493
0.002663470805
0.002663058229
0.00266047148
0.002660790458
0.002665142296
0.002664708998
0.002663873602
0.002664296422
0.00265198783
0.002652638825
0.002653962001
0.002653280739
0.002655396238
0.002655734075
0.002656433266
0.002656088676
0.002657847013
0.002657495672
0.002656782046
0.002657132223
0.00265899254
0.00265929848
0.002660036553
0.002659726888
0.002666013315
0.002666464075
0.002667334629
0.002666883403
0.002669094363
0.002668631729
0.002667753492
0.002668207977
0.002670013346
0.002670469461
0.002671343042
0.00267091603
0.002672873437
0.002672510454
0.0026717484
0.002672142116
0.002673676237
0.002673281124
0.002674476244
0.002675323747
0.002674822928
0.00268681813
0.002686901949
0.002686955966
0.002687040949
0.002687017433
0.002687077038
0.002687063301
0.00268694805
0.002687113825
0.002686809748
0.002686874242
0.002685971791
0.002685851417
0.002685662359
0.002686260967
0.002686130814
0.002686579013
0.002686425112
0.002685509622
0.00268675806
0.002683980158
0.002683676779
0.002682662569
0.00268298015
0.002683381783
0.002684354084
0.002684941981
0.002684626961
0.002685479121
0.002685379237
0.002685205545
0.002680634847
0.002680253936
0.00267946301
0.002679870697
0.002681533108
0.0026812125
0.002681944519
0.0026825401
0.002682242077
0.002676620381
0.002676238539
0.002675796393
0.002676255303
0.002677374985
0.002678152639
0.002677722601
0.002679072553
0.002678751014
0.002662688959
0.002661869628
0.002663102467
0.002661470789
0.002663911786
0.002663490362
0.002660701051
0.002661090344
0.002665596781
0.002665150678
0.002664308762
0.002664742293
0.002652757568
0.002653074916
0.002653714968
0.002653404837
0.002655050717
0.00265472196
0.002654054901
0.002654383425
0.002656174125
0.002656464931
0.002657168312
0.002656871919
0.002658576239
0.002658279613
0.002657575067
0.002657866571
0.002659224439
0.002659595106
0.00266033411
0.002659955993
0.002666484332
0.002666919492
0.002667786554
0.002667350927
0.002669561421
0.002669109963
0.002668221947
0.002668665256
0.002670370508
0.002670829184
0.002671707422
0.00267128367
0.002673247596
0.00267288601
0.002672113478
0.002672508825
0.00267411652
0.002673633397
0.002674714662
0.002675644122
0.002675152151
0.002686889376
0.002686984837
0.002686975058
0.002687058412
0.002687031636
0.002687103348
0.002687097527
0.00268698344
0.002687140368
0.002686023246
0.00268589519
0.002685734304
0.002686274238
0.002686151536
0.002686601365
0.002686436754
0.002685599495
0.002686784137
0.002684067469
0.002683764556
0.002682809252
0.002683104482
0.002683460014
0.002684395295
0.002684994135
0.002684673993
0.002685534535
0.002685412765
0.002685240004
0.002680896781
0.002680506324
0.002679715166
0.002680121223
0.002681663726
0.00268136221
0.002682032995
0.002682629973
0.002682336606
0.002677033423
0.002676660661
0.002676137257
0.002676554024
0.002677683719
0.002678432269
0.002678020159
0.002679313533
0.002678953344
0.002663142979
0.002662309213
0.002663544146
0.002661903854
0.002664356027
0.002663945314
0.002661133185
0.002661530627
0.002666051965
0.002665618202
0.002664769068
0.002665192354
0.002653546166
0.002653818345
0.002654456068
0.002654184587
0.002655783901
0.002655511023
0.002654841635
0.002655130345
0.002656422323
0.002656769007
0.002657467499
0.002657112665
0.002658871235
0.002658508485
0.002657808596
0.002658163896
0.002659656107
0.002660033992
0.002660773695
0.002660387428
0.002666826826
0.002667258959
0.002668125555
0.002667691093
0.002669916954
0.002669463865
0.002668566769
0.002669013105
0.002670608694
0.002671071328
0.002671957714
0.002671532566
0.002673519542
0.0026731533
0.002672365634
0.002672767034
0.002674344461
0.002673893003
0.002674880438
0.002675827593
0.002675313968
0.002687071683
0.002687117085
0.002687127097
0.002687009051
0.00268715783
0.002686048858
0.002685919404
0.002685771557
0.002686284482
0.002686165273
0.002686614171
0.002686447464
0.002685646992
0.002686799038
0.002684105886
0.002683806699
0.002682890045
0.002683172468
0.002683499828
0.002684412058
0.002685024869
0.002684697509
0.002685564104
0.002685436746
0.002685260959
0.002681057435
0.002680656034
0.002679862082
0.002680267207
0.002681741957
0.002681449754
0.002682079095
0.002682674211
0.002682384104
0.002677335637
0.002676958451
0.002676298376
0.002676748205
0.002677890472
0.002678605262
0.00267822016
0.002679458121
0.00267907558
0.002663475927
0.002662750427
0.002663874999
0.002662357641
0.002664689207
0.002664278727
0.002661589766
0.002661973471
0.002666393528
0.002665959764
0.00266510807
0.002665531822
0.002653802978
0.002654126845
0.002654762007
0.002654445823
0.002656089142
0.002655754099
0.002655095654
0.002655431163
0.00265686959
0.002657224657
0.002657911507
0.002657554112
0.002659310121
0.00265893992
0.002658241894
0.002658602549
0.002660112223
0.002660476835
0.002661215141
0.002660842612
0.002667050809
0.002667482244
0.002668350469
0.002667913679
0.002670152811
0.002669698559
0.002668794477
0.002669245005
0.002670754679
0.002671221504
0.002672116505
0.002671689726
0.002673697658
0.002673325129
0.002672527451
0.002672933042
0.002674486022
0.002674063435
0.002674982417
0.002675911179
0.002675432479
0.002687141299
0.002687021159
0.002686065855
0.002685934771
0.002685791114
0.00268629496
0.002686178312
0.002686621388
0.002685673302
0.002686813241
0.002684122883
0.002683826257
0.002682931721
0.002683206461
0.002683519851
0.002684418578
0.002685046755
0.002684707753
0.002685585758
0.002685448388
0.002685277257
0.002681149403
0.002680735895
0.002679938916
0.002680342877
0.0026817834
0.00268149795
0.00268210494
0.002682696795
0.002682410181
0.002677536337
0.002677154262
0.002676418051
0.002676867414
0.002678016433
0.002678710269
0.002678344026
0.002679535886
0.002679142868
0.002663693391
0.002663079882
0.002664092928
0.002662691055
0.002664909931
0.002664497122
0.002661925508
0.002662307117
0.002666617977
0.00266618398
0.002665330656
0.002665754873
0.002654261887
0.002654593205
0.002655231161
0.002654897515
0.002656546421
0.00265619834
0.002655542223
0.002655883087
0.002657338977
0.00265767891
0.002658358309
0.00265801698
0.002659753431
0.002659395337
0.002658697544
0.00265904516
0.002660447732
0.002660810482
0.002661548555
0.002661176957
0.002667184453
0.00266761519
0.002668484813
0.002668047324
0.002670296002
0.002669839654
0.002668931149
0.002669383772
0.002670836868
0.002671308815
0.002672210569
0.002671782859
0.002673804294
0.002673425246
0.00267262198
0.002673030365
0.002674574265
0.002674168674
0.002675039927
0.002675976604
0.002675497904
0.002686074469
0.002685947809
0.00268580718
0.002685690764
0.002684131265
0.002683837898
0.002682951279
0.002683222294
0.00268353126
0.002684420673
0.002685046056
0.002684724052
0.002685595304
0.002681199461
0.002680775011
0.002679974772
0.002680377802
0.002681808081
0.002681524726
0.002682127524
0.002682710765
0.00268242741
0.002677657176
0.002677273471
0.002676485339
0.002676934237
0.002678084653
0.002678768244
0.002678412013
0.002679573838
0.002679178258
0.002663822845
0.002663297579
0.002664222615
0.002662908519
0.002665041946
0.002664627973
0.002662146464
0.002662525512
0.002666753018
0.002666318091
0.002665463369
0.002665888518
0.002654744312
0.002655060263
0.002655693796
0.002655375749
0.002657003701
0.002656669356
0.002656014869
0.002656341298
0.002657684032
0.002658018842
0.002658692654
0.002658355515
0.002660087775
0.002659731545
0.002659033053
0.002659379505
0.002660668222
0.002661030507
0.00266177021
0.002661397448
0.002667256398
0.002667686203
0.002668556524
0.002668118104
0.002670374932
0.00266991579
0.002669004258
0.002669458278
0.002670878079
0.002671354916
0.002672260394
0.002671834547
0.002673861105
0.002673477167
0.002672673203
0.002673081122
0.002674621763
0.002674227115
0.002675067866
0.002676008968
0.002675530268
0.002685816959
0.002685704967
0.00268413825
0.002683844417
0.002682960592
0.002683232538
0.002683542669
0.002681226004
0.00268079224
0.002679989208
0.002680391539
0.002681826474
0.002681541024
0.002682141028
0.00268271612
0.00268244138
0.00267772167
0.002677338198
0.002676520729
0.00267696823
0.002678117249
0.002678798046
0.002678447869
0.002679590601
0.002679194324
0.002663892694
0.002663427731
0.002664292697
0.002663038671
0.002665113425
0.002664698754
0.002662277315
0.002662655897
0.002666825196
0.002666390035
0.00266553415
0.002665959764
0.002655101474
0.002655413467
0.002656043274
0.002655727789
0.002657350386
0.002657017671
0.002656364813
0.002656689147
0.002657909412
0.002658241196
0.002658913843
0.002658576472
0.00266030943
0.002659953199
0.002659254009
0.002659600694
0.002660800004
0.002661161823
0.002661902457
0.002661528997
0.002667289693
0.002667718334
0.002668589819
0.002668150701
0.002670412883
0.002669951413
0.002669038251
0.002669492504
0.002670894377
0.002671376104
0.002672284143
0.002671858529
0.002673887648
0.002673500916
0.002672696253
0.002673104405
0.002674646443
0.00267425552
0.002675082535
0.002676022239
0.002675545169
0.002682972234
0.002683241619
0.002681241604
0.002680799924
0.002679995494
0.002680398058
0.002681840211
0.002681554761
0.002677753568
0.00267737126
0.00267653726
0.002676984295
0.002678130753
0.002678813413
0.002678463235
0.002679598983
0.002679203404
0.002663924359
0.002663498279
0.002664324827
0.002663108986
0.002665146254
0.002664731815
0.002662347164
0.002662724582
0.002666859189
0.002666423563
0.002665567212
0.002665992826
0.002655335469
0.002655646298
0.002656275174
0.002655960154
0.00265757856
0.002657247242
0.002656595316
0.00265691895
0.00265804329
0.002658373211
0.002659046557
0.00265870872
0.002660441678
0.00266008568
0.00265938649
0.002659733174
0.002660870552
0.002661232371
0.002661972539
0.002661599545
0.002667301567
0.002667729976
0.002668601926
0.002668162342
0.002670426853
0.002669963986
0.002669050358
0.002669505309
0.002670898335
0.002671383787
0.002672293689
0.002671868773
0.002673897659
0.002673509996
0.002672706265
0.002673113719
0.002674658783
0.002674268559
0.002675094875
0.002676029224
0.002675553551
0.002681237645
0.002680814127
0.002680003177
0.002680399921
0.002677766373
0.002677385695
0.002676544944
0.002676991513
0.002678136341
0.002678824123
0.002678469289
0.002679605037
0.002679213416
0.002663935767
0.002663530409
0.002664336935
0.002663141349
0.002665158827
0.002664743923
0.002662378829
0.002662756946
0.002666871063
0.00266643567
0.002665579086
0.002666004468
0.002655475633
0.002655787161
0.002656414639
0.002656100085
0.0026577143
0.002657384379
0.002656733384
0.002657056786
0.002658115001
0.00265844469
0.002659117803
0.002658779966
0.002660511993
0.002660156693
0.002659457969
0.002659804653
0.002660902683
0.002661264967
0.002662004437
0.002661631675
0.002667303896
0.002667731838
0.002668603789
0.002668164438
0.002670428948
0.002669965848
0.002669051755
0.002669507172
0.002670897171
0.002671385184
0.002672298579
0.002671873663
0.002673900453
0.002673513489
0.002672710922
0.002673118142
0.002674669027
0.002674272982
0.002675109077
0.00267603877
0.002675561002
0.00267777266
0.002677393146
0.002676544478
0.002676997334
0.00267813541
0.002678830875
0.00267847674
0.002663937863
0.002663541585
0.002664338565
0.002663152991
0.002665160457
0.002664745785
0.002662390936
0.002662769053
0.002666873625
0.002666437533
0.002665580949
0.00266600633
0.002655552235
0.002655863063
0.002656489844
0.002656175988
0.002657787409
0.002657458186
0.002656808123
0.002657131525
0.002658148529
0.002658477752
0.002659150632
0.002658812795
0.002660544822
0.002660189522
0.002659491263
0.002659837715
0.00266091479
0.002661276609
0.002662016312
0.002661644015
0.002667301567
0.002667729976
0.002668601228
0.002668162342
0.002670425922
0.002669962822
0.002669048961
0.002669504145
0.002670895774
0.002671386814
0.002672303002
0.002671870869
0.002673900919
0.002673516981
0.002672714414
0.002673121169
0.002674680203
0.002674280433
0.002677777084
0.002677397802
0.002663935535
0.002663543448
0.002664336702
0.002663154155
0.002665158128
0.002664743457
0.002662393497
0.00266277045
0.002666871762
0.00266643567
0.002665578621
0.002666004468
0.00265558809
0.002655898686
0.002656525001
0.002656211611
0.002657821169
0.002657492412
0.002656843048
0.002657166217